 Gaussian 16, Revision A.03,
 Gaussian 16:  ES64L-G16RevA.03 25-Dec-2016

 --------------------------------------------
 # td=(nstates=20,root=20) cam-b3lyp/6-31g(d)
 --------------------------------------------

 -----
 Title
 -----
 Symbolic Z-matrix:
 Charge =  0 Multiplicity = 1

                         Standard orientation:
 ---------------------------------------------------------------------
 Center     Atomic      Atomic             Coordinates (Angstroms)
 Number     Number       Type             X           Y           Z
 ---------------------------------------------------------------------
      1          6           0       -6.147923   -4.027322   -1.149179
      2          8           0       -4.811209   -3.856297   -0.696291
      3          6           0       -4.295121   -2.600981   -0.666438
      4          6           0       -4.975753   -1.454380   -1.044751
      5          6           0       -4.326586   -0.198273   -0.969711
      6          6           0       -2.978962   -0.118872   -0.492305
      7          6           0       -2.311311    1.124643   -0.409172
      8          6           0       -2.964689    2.287123   -0.834649
      9          6           0       -2.276400    3.593374   -0.787725
     10          8           0       -2.795901    4.638031   -1.143401
     11          6           0       -4.294087    2.212544   -1.312723
     12          6           0       -4.959825    1.010375   -1.369987
     13          6           0       -2.315945   -1.323280   -0.125627
     14          8           0       -1.002917   -1.327343    0.237547
     15          6           0       -0.349946   -0.122610    0.717117
     16          6           0        1.109891   -0.293255    0.300529
     17          6           0        1.327128   -0.465169   -1.088076
     18          6           0        2.591870   -0.621401   -1.588793
     19          6           0        3.717871   -0.606607   -0.725275
     20          6           0        3.524816   -0.439598    0.689012
     21          6           0        4.684978   -0.431969    1.509700
     22          6           0        5.937839   -0.592035    0.960914
     23          6           0        6.126758   -0.770260   -0.425726
     24          8           0        7.367954   -0.953807   -0.971693
     25          6           0        5.024456   -0.766188   -1.267481
     26          8           0        5.143484   -0.976162   -2.619970
     27          6           0        5.843404    0.035909   -3.353622
     28          6           0        2.177567   -0.285655    1.193226
     29          6           0        1.887292   -0.142491    2.658866
     30          8           0        2.757541   -0.091334    3.528115
     31          6           0       -0.548229   -0.077046    2.221315
     32          8           0       -1.856471   -0.022780    2.532313
     33          6           0       -2.223508    0.000270    3.912037
     34          6           0        0.483768   -0.074365    3.082228
     35          6           0       -0.947300    1.168686    0.124833
     36          6           0       -0.248793    2.325324    0.188311
     37          6           0       -0.817963    3.603674   -0.257437
     38          8           0       -0.194073    4.650646   -0.211540
     39          6           0       -2.954729   -2.536765   -0.204794
     40          1           0       -6.347544   -5.098179   -1.088340
     41          1           0       -6.263405   -3.692136   -2.187570
     42          1           0       -6.857889   -3.485841   -0.511320
     43          1           0       -5.995693   -1.493375   -1.407814
     44          1           0       -4.769260    3.135799   -1.628275
     45          1           0       -5.982798    0.968110   -1.735001
     46          1           0        0.473513   -0.481225   -1.757989
     47          1           0        2.756385   -0.764726   -2.650324
     48          1           0        4.573210   -0.301415    2.574835
     49          1           0        6.811589   -0.589080    1.611590
     50          1           0        8.025272   -0.936542   -0.258806
     51          1           0        5.776085   -0.256575   -4.403912
     52          1           0        5.367487    1.015546   -3.216741
     53          1           0        6.893456    0.091303   -3.053257
     54          1           0       -1.856726   -0.895347    4.425756
     55          1           0       -3.313421    0.019349    3.927028
     56          1           0       -1.827176    0.895746    4.403907
     57          1           0        0.344728   -0.013147    4.155018
     58          1           0        0.762216    2.363799    0.581864
     59          1           0       -2.440702   -3.450101    0.071000
 ---------------------------------------------------------------------

 SCF Done:  E(RCAM-B3LYP) =  -1794.22162301     A.U. after   17 cycles

 Excitation energies and oscillator strengths:

 Excited State   1:      Singlet-A      2.3020 eV  538.60 nm  f=0.0000  <S**2>=0.000
     131 ->136         0.66855
     131 ->138         0.11135

 Excited State   2:      Singlet-A      2.7616 eV  448.95 nm  f=0.0500  <S**2>=0.000
     128 ->136        -0.11624
     134 ->136         0.65780
     135 ->136        -0.19128

 Excited State   3:      Singlet-A      3.4315 eV  361.32 nm  f=0.0022  <S**2>=0.000
     134 ->136         0.19101
     135 ->136         0.66091

 Excited State   4:      Singlet-A      3.5733 eV  346.97 nm  f=0.0001  <S**2>=0.000
     124 ->136         0.43126
     125 ->136         0.45859
     131 ->139         0.12465

 Excited State   5:      Singlet-A      3.6391 eV  340.70 nm  f=0.0687  <S**2>=0.000
     130 ->137        -0.26708
     135 ->137         0.62164

 Excited State   6:      Singlet-A      3.6432 eV  340.32 nm  f=0.0132  <S**2>=0.000
     128 ->137        -0.15158
     130 ->137         0.58377
     130 ->141        -0.13087
     135 ->137         0.27800

 Excited State   7:      Singlet-A      3.7213 eV  333.17 nm  f=0.1056  <S**2>=0.000
     128 ->136         0.12201
     132 ->136         0.53856
     133 ->136         0.27139
     134 ->138        -0.25443

 Excited State   8:      Singlet-A      3.9900 eV  310.74 nm  f=0.0220  <S**2>=0.000
     128 ->136         0.53668
     129 ->136        -0.30915
     130 ->136         0.17174
     132 ->136        -0.17343
     134 ->136         0.10269

 Excited State   9:      Singlet-A      4.2079 eV  294.65 nm  f=0.0532  <S**2>=0.000
     132 ->137        -0.16069
     133 ->137         0.49407
     133 ->139         0.10010
     134 ->137        -0.29035
     135 ->140         0.28847

 Excited State  10:      Singlet-A      4.2591 eV  291.11 nm  f=0.0070  <S**2>=0.000
     123 ->136         0.10510
     128 ->136        -0.11560
     132 ->136        -0.23558
     133 ->136         0.62731

 Excited State  11:      Singlet-A      4.4205 eV  280.47 nm  f=0.0365  <S**2>=0.000
     129 ->137         0.13931
     132 ->137        -0.18746
     133 ->137         0.12546
     134 ->137         0.55141
     134 ->139        -0.14422
     135 ->139         0.15797
     135 ->140         0.16058

 Excited State  12:      Singlet-A      4.4632 eV  277.79 nm  f=0.0199  <S**2>=0.000
     128 ->136         0.25793
     129 ->136         0.57874
     132 ->136        -0.15837
     134 ->137        -0.12240
     134 ->138        -0.11890

 Excited State  13:      Singlet-A      4.6179 eV  268.48 nm  f=0.5369  <S**2>=0.000
     128 ->136         0.17898
     129 ->136         0.12723
     132 ->136         0.24794
     132 ->138         0.10668
     133 ->138         0.10067
     134 ->138         0.52782
     134 ->139         0.14338
     135 ->138        -0.11645

 Excited State  14:      Singlet-A      4.8633 eV  254.94 nm  f=0.0005  <S**2>=0.000
     128 ->136        -0.19624
     130 ->136         0.65840

 Excited State  15:      Singlet-A      4.9134 eV  252.34 nm  f=0.0246  <S**2>=0.000
     127 ->137         0.13669
     129 ->137         0.34536
     132 ->138         0.13567
     133 ->137        -0.17096
     134 ->138        -0.16031
     134 ->139         0.36486
     134 ->141        -0.10818
     135 ->139         0.16428
     135 ->140         0.14852
     135 ->141         0.13442

 Excited State  16:      Singlet-A      5.0017 eV  247.88 nm  f=0.0361  <S**2>=0.000
     127 ->137         0.11684
     129 ->137         0.17318
     132 ->138        -0.18078
     133 ->137        -0.16109
     134 ->137        -0.22580
     134 ->138         0.16380
     134 ->139        -0.28901
     134 ->140         0.15553
     134 ->141         0.15600
     135 ->138        -0.15330
     135 ->139         0.31365
     135 ->141         0.12050

 Excited State  17:      Singlet-A      5.1320 eV  241.59 nm  f=0.6380  <S**2>=0.000
     129 ->137         0.36532
     132 ->137        -0.20993
     133 ->137         0.19749
     133 ->141        -0.10138
     135 ->137         0.11881
     135 ->139        -0.24985
     135 ->140        -0.33651

 Excited State  18:      Singlet-A      5.2535 eV  236.00 nm  f=0.0820  <S**2>=0.000
     124 ->136         0.12692
     125 ->136        -0.10216
     126 ->136        -0.10683
     127 ->136         0.31736
     127 ->137         0.11935
     129 ->137        -0.19728
     133 ->137         0.20933
     134 ->139         0.10664
     135 ->139         0.20177
     135 ->140        -0.24086
     135 ->141         0.25812

 Excited State  19:      Singlet-A      5.2839 eV  234.65 nm  f=0.0664  <S**2>=0.000
     122 ->136         0.10207
     124 ->136         0.23574
     125 ->136        -0.19799
     126 ->136        -0.14736
     127 ->136         0.40677
     127 ->137        -0.10121
     129 ->137         0.14052
     133 ->137        -0.15091
     135 ->138         0.11523
     135 ->139        -0.11573
     135 ->140         0.17210
     135 ->141        -0.18479

 Excited State  20:      Singlet-A      5.3713 eV  230.83 nm  f=0.0024  <S**2>=0.000
     124 ->136        -0.20389
     127 ->136         0.18125
     131 ->136        -0.14468
     131 ->138         0.48191
     131 ->139         0.19058
     131 ->142         0.24244
 This state for optimization and/or second-order correction.
 Total Energy, E(TD-HF/TD-DFT) =  -1794.02422974
 Copying the excited state density for this state as the 1-particle RhoCI density.

 The electronic state is 1-A.
 Alpha  occ. eigenvalues --  -19.28496 -19.27206 -19.26691 -19.25961 -19.23641
 Alpha  occ. eigenvalues --  -19.22713 -19.22681 -19.20497 -10.37216 -10.35854
 Alpha  occ. eigenvalues --  -10.35830 -10.35804 -10.35558 -10.34570 -10.34489
 Alpha  occ. eigenvalues --  -10.33331 -10.32848 -10.32617 -10.32034 -10.31525
 Alpha  occ. eigenvalues --  -10.30665 -10.30150 -10.29799 -10.29461 -10.29014
 Alpha  occ. eigenvalues --  -10.28738 -10.28584 -10.28582 -10.28219 -10.28197
 Alpha  occ. eigenvalues --  -10.28131 -10.27896 -10.27272 -10.27202 -10.27183
 Alpha  occ. eigenvalues --  -10.27023 -10.26940 -10.26856 -10.25966  -1.18699
 Alpha  occ. eigenvalues --   -1.16412  -1.16177  -1.15193  -1.14141  -1.12406
 Alpha  occ. eigenvalues --   -1.11378  -1.11236  -0.98282  -0.97456  -0.95193
 Alpha  occ. eigenvalues --   -0.92437  -0.90595  -0.89663  -0.86924  -0.86012
 Alpha  occ. eigenvalues --   -0.85782  -0.83701  -0.82894  -0.81944  -0.81265
 Alpha  occ. eigenvalues --   -0.80534  -0.78656  -0.76386  -0.75747  -0.72409
 Alpha  occ. eigenvalues --   -0.72409  -0.70804  -0.70329  -0.69718  -0.69157
 Alpha  occ. eigenvalues --   -0.67034  -0.64127  -0.63784  -0.63561  -0.61853
 Alpha  occ. eigenvalues --   -0.61360  -0.60641  -0.60164  -0.59165  -0.58396
 Alpha  occ. eigenvalues --   -0.57866  -0.56928  -0.56392  -0.56199  -0.55783
 Alpha  occ. eigenvalues --   -0.55383  -0.54727  -0.53702  -0.53410  -0.52966
 Alpha  occ. eigenvalues --   -0.52515  -0.51997  -0.51449  -0.51187  -0.50965
 Alpha  occ. eigenvalues --   -0.50741  -0.50302  -0.49878  -0.49366  -0.48849
 Alpha  occ. eigenvalues --   -0.48495  -0.48372  -0.48184  -0.47206  -0.47040
 Alpha  occ. eigenvalues --   -0.46851  -0.46592  -0.46237  -0.45307  -0.44639
 Alpha  occ. eigenvalues --   -0.44305  -0.43792  -0.43459  -0.43198  -0.42974
 Alpha  occ. eigenvalues --   -0.42537  -0.42104  -0.41720  -0.41251  -0.40047
 Alpha  occ. eigenvalues --   -0.39637  -0.38593  -0.37479  -0.35835  -0.35440
 Alpha  occ. eigenvalues --   -0.34697  -0.32940  -0.31641  -0.31296  -0.31068
 Alpha  occ. eigenvalues --   -0.30518  -0.29453  -0.28922  -0.26178  -0.25454
 Alpha virt. eigenvalues --   -0.07547  -0.03307  -0.00269   0.00966   0.02775
 Alpha virt. eigenvalues --    0.03741   0.05569   0.07975   0.09168   0.10920
 Alpha virt. eigenvalues --    0.12947   0.13365   0.13637   0.13909   0.14041

 Mulliken charges:
               1
     1  C   -0.221003
     2  O   -0.508196
     3  C    0.394496
     4  C   -0.299814
     5  C    0.160001
     6  C   -0.002818
     7  C    0.054383
     8  C    0.010898
     9  C    0.319184
    10  O   -0.427879
    11  C   -0.171007
    12  C   -0.205376
    13  C    0.364403
    14  O   -0.572909
    15  C    0.078777
    16  C    0.062533
    17  C   -0.168377
    18  C   -0.181473
    19  C    0.077304
    20  C    0.044581
    21  C   -0.191055
    22  C   -0.206571
    23  C    0.322667
    24  O   -0.646863
    25  C    0.237402
    26  O   -0.525711
    27  C   -0.218879
    28  C   -0.016407
    29  C    0.416304
    30  O   -0.500031
    31  C    0.471791
    32  O   -0.499242
    33  C   -0.229253
    34  C   -0.303648
    35  C    0.135321
    36  C   -0.297487
    37  C    0.401718
    38  O   -0.427266
    39  C   -0.262361
    40  H    0.179586
    41  H    0.160267
    42  H    0.158748
    43  H    0.139649
    44  H    0.174595
    45  H    0.145288
    46  H    0.149536
    47  H    0.166005
    48  H    0.199600
    49  H    0.132736
    50  H    0.416366
    51  H    0.162596
    52  H    0.145770
    53  H    0.174464
    54  H    0.173134
    55  H    0.186475
    56  H    0.172324
    57  H    0.155990
    58  H    0.175040
    59  H    0.163693
 Sum of Mulliken charges =  -0.00000

 Dipole moment (field-independent basis, Debye):
    X=             -3.0106    Y=             -4.7847    Z=              0.6229  Tot=              5.6872
 Quadrupole moment (field-independent basis, Debye-Ang):
   XX=           -161.3730   YY=           -251.8696   ZZ=           -208.4594
   XY=             21.1141   XZ=             -3.7793   YZ=              3.2508

 Normal termination of Gaussian 16 at Thu Dec 28 13:07:48 2023.
