 Gaussian 16, Revision A.03,
 Gaussian 16:  ES64L-G16RevA.03 25-Dec-2016

 --------------------------------------------
 # td=(nstates=20,root=20) cam-b3lyp/6-31g(d)
 --------------------------------------------

 -----
 Title
 -----
 Symbolic Z-matrix:
 Charge =  0 Multiplicity = 1

                         Standard orientation:
 ---------------------------------------------------------------------
 Center     Atomic      Atomic             Coordinates (Angstroms)
 Number     Number       Type             X           Y           Z
 ---------------------------------------------------------------------
      1          8           0       -0.048912    2.337898   -2.115115
      2          6           0        0.191824    2.797932   -0.868771
      3          6           0       -0.801379    2.295686    0.186200
      4          6           0       -0.052264    1.968661    1.503334
      5          6           0        1.007650    0.935707    1.285896
      6          6           0        2.263849    0.874017    1.840201
      7          7           0        2.953006   -0.201661    1.320610
      8          6           0        2.151474   -0.834194    0.399249
      9          6           0        2.426134   -1.941291   -0.408702
     10          8           0        3.659969   -2.521729   -0.291734
     11          6           0        1.424370   -2.361794   -1.275892
     12          6           0        0.179997   -1.707014   -1.313851
     13          6           0       -0.122610   -0.596189   -0.517454
     14          6           0       -1.458341    0.065309   -0.557516
     15          6           0       -2.672036   -0.766323   -0.968524
     16          6           0       -3.393317   -1.522607    0.184817
     17          6           0       -4.001113   -0.566937    1.221323
     18          6           0       -2.519069   -2.587643    0.863410
     19          7           0       -1.747138    1.282889   -0.251665
     20          6           0        0.912090   -0.149965    0.351759
     21          8           0        1.080327    3.586496   -0.625373
     22          1           0        0.627683    2.756447   -2.680860
     23          1           0       -1.409022    3.188981    0.395066
     24          1           0       -0.809214    1.634514    2.224759
     25          1           0        0.388307    2.890278    1.896673
     26          1           0        2.730053    1.530190    2.562303
     27          1           0        3.901056   -0.465656    1.537103
     28          1           0        3.714933   -3.269659   -0.906973
     29          1           0        1.602642   -3.212583   -1.930642
     30          1           0       -0.556591   -2.087951   -2.010995
     31          1           0       -3.387098   -0.069475   -1.415483
     32          1           0       -2.407959   -1.497049   -1.739811
     33          1           0       -4.228206   -2.048657   -0.302498
     34          1           0       -3.224417   -0.015585    1.761569
     35          1           0       -4.654795    0.173542    0.747490
     36          1           0       -4.592854   -1.126037    1.956613
     37          1           0       -3.109996   -3.162344    1.587056
     38          1           0       -1.680056   -2.135760    1.404411
     39          1           0       -2.100166   -3.293247    0.136506
 ---------------------------------------------------------------------

 SCF Done:  E(RCAM-B3LYP) =  -955.243700386     A.U. after   16 cycles

 Excitation energies and oscillator strengths:

 Excited State   1:      Singlet-A      4.2171 eV  294.00 nm  f=0.0632  <S**2>=0.000
      74 -> 77         0.48289
      74 -> 78        -0.11688
      74 -> 80         0.17112
      76 -> 77         0.44058

 Excited State   2:      Singlet-A      4.4514 eV  278.53 nm  f=0.1473  <S**2>=0.000
      74 -> 77        -0.41732
      74 -> 80        -0.11218
      76 -> 77         0.53151

 Excited State   3:      Singlet-A      4.8180 eV  257.33 nm  f=0.0187  <S**2>=0.000
      73 -> 77        -0.12900
      75 -> 77         0.54092
      76 -> 78        -0.37264
      76 -> 79         0.12196

 Excited State   4:      Singlet-A      5.6622 eV  218.97 nm  f=0.0409  <S**2>=0.000
      71 -> 78         0.11180
      71 -> 79         0.20481
      72 -> 78         0.16672
      72 -> 79         0.25608
      73 -> 78        -0.11695
      73 -> 79        -0.20328
      74 -> 78         0.20740
      74 -> 79         0.27141
      75 -> 77         0.17516
      76 -> 78         0.29863
      76 -> 79         0.20764

 Excited State   5:      Singlet-A      5.7751 eV  214.69 nm  f=0.1624  <S**2>=0.000
      73 -> 77         0.59589
      75 -> 77         0.24034
      76 -> 78         0.13120
      76 -> 80        -0.10213

 Excited State   6:      Singlet-A      5.8807 eV  210.83 nm  f=0.2050  <S**2>=0.000
      71 -> 79        -0.12568
      72 -> 79        -0.11543
      73 -> 77        -0.30117
      73 -> 78         0.12606
      73 -> 79         0.11000
      74 -> 78        -0.10688
      74 -> 79        -0.11726
      75 -> 77         0.26962
      76 -> 78         0.47159

 Excited State   7:      Singlet-A      6.1617 eV  201.22 nm  f=0.0305  <S**2>=0.000
      72 -> 77        -0.11247
      75 -> 77        -0.15004
      75 -> 78         0.45282
      76 -> 79         0.27209
      76 -> 80        -0.37613

 Excited State   8:      Singlet-A      6.4084 eV  193.47 nm  f=0.0503  <S**2>=0.000
      71 -> 79        -0.11447
      75 -> 78        -0.17322
      75 -> 79         0.13250
      76 -> 79         0.56669
      76 -> 80         0.23362

 Excited State   9:      Singlet-A      6.5455 eV  189.42 nm  f=0.0129  <S**2>=0.000
      72 -> 79        -0.16511
      73 -> 78         0.17450
      73 -> 79         0.12941
      74 -> 77         0.10498
      74 -> 78         0.45177
      74 -> 79         0.22531
      75 -> 78         0.24669
      76 -> 80         0.20818

 Excited State  10:      Singlet-A      6.5640 eV  188.88 nm  f=0.1314  <S**2>=0.000
      72 -> 77         0.44999
      73 -> 77        -0.10530
      74 -> 77         0.11843
      74 -> 78         0.18750
      75 -> 78        -0.19272
      76 -> 80        -0.31175
      76 -> 81         0.14269

 Excited State  11:      Singlet-A      6.6369 eV  186.81 nm  f=0.0100  <S**2>=0.000
      72 -> 77        -0.19786
      72 -> 81        -0.14823
      75 -> 81        -0.11215
      76 -> 81         0.61986

 Excited State  12:      Singlet-A      6.7066 eV  184.87 nm  f=0.1593  <S**2>=0.000
      72 -> 77         0.42576
      74 -> 78        -0.17526
      74 -> 80         0.13554
      75 -> 78         0.34460
      76 -> 80         0.28516
      76 -> 81         0.12609

 Excited State  13:      Singlet-A      6.9602 eV  178.13 nm  f=0.0203  <S**2>=0.000
      73 -> 78         0.14022
      74 -> 77        -0.20723
      74 -> 78        -0.10069
      74 -> 79         0.36126
      74 -> 80         0.43883
      75 -> 80         0.14202
      76 -> 80        -0.13410

 Excited State  14:      Singlet-A      7.0611 eV  175.59 nm  f=0.0721  <S**2>=0.000
      72 -> 78         0.23559
      73 -> 78         0.48107
      73 -> 79        -0.12866
      74 -> 79        -0.18164
      75 -> 79        -0.19289
      75 -> 80         0.20789
      75 -> 82        -0.15111

 Excited State  15:      Singlet-A      7.1745 eV  172.81 nm  f=0.0007  <S**2>=0.000
      70 -> 77        -0.10649
      73 -> 78        -0.17290
      74 -> 78         0.32965
      74 -> 79        -0.38079
      74 -> 80         0.39684

 Excited State  16:      Singlet-A      7.2670 eV  170.61 nm  f=0.0025  <S**2>=0.000
      63 -> 77        -0.10062
      66 -> 77         0.19449
      69 -> 77        -0.16454
      70 -> 77        -0.33986
      71 -> 77         0.43316
      72 -> 77         0.12561
      76 -> 82         0.16826

 Excited State  17:      Singlet-A      7.3643 eV  168.36 nm  f=0.1070  <S**2>=0.000
      71 -> 79         0.10034
      72 -> 78         0.10584
      73 -> 78         0.17854
      74 -> 79        -0.10160
      75 -> 79         0.49535
      75 -> 80        -0.24497
      75 -> 81         0.14851
      76 -> 80        -0.13177
      76 -> 84         0.11609

 Excited State  18:      Singlet-A      7.3968 eV  167.62 nm  f=0.0613  <S**2>=0.000
      70 -> 77         0.11492
      75 -> 81        -0.12570
      76 -> 82         0.57838
      76 -> 83         0.20599
      76 -> 84        -0.16039

 Excited State  19:      Singlet-A      7.4727 eV  165.92 nm  f=0.0179  <S**2>=0.000
      75 -> 79        -0.33634
      75 -> 80        -0.30452
      75 -> 81         0.21659
      76 -> 82         0.17698
      76 -> 84         0.34446
      76 -> 85         0.16341

 Excited State  20:      Singlet-A      7.4990 eV  165.33 nm  f=0.0303  <S**2>=0.000
      69 -> 77         0.12745
      70 -> 77         0.22315
      71 -> 77         0.22373
      73 -> 78        -0.13809
      75 -> 79         0.18574
      75 -> 80         0.33333
      75 -> 81         0.15758
      76 -> 82         0.15498
      76 -> 84         0.28503
 This state for optimization and/or second-order correction.
 Total Energy, E(TD-HF/TD-DFT) =  -954.968116304
 Copying the excited state density for this state as the 1-particle RhoCI density.

 The electronic state is 1-A.
 Alpha  occ. eigenvalues --  -19.26461 -19.26091 -19.20113 -14.45395 -14.37713
 Alpha  occ. eigenvalues --  -10.38824 -10.33335 -10.30122 -10.29435 -10.29322
 Alpha  occ. eigenvalues --  -10.29250 -10.26494 -10.26440 -10.26326 -10.26178
 Alpha  occ. eigenvalues --  -10.26169 -10.25505 -10.25263 -10.24347 -10.23434
 Alpha  occ. eigenvalues --  -10.22964  -1.17834  -1.15137  -1.08321  -1.06285
 Alpha  occ. eigenvalues --   -0.99183  -0.92457  -0.88926  -0.87179  -0.84624
 Alpha  occ. eigenvalues --   -0.82056  -0.79549  -0.77188  -0.74683  -0.74334
 Alpha  occ. eigenvalues --   -0.71178  -0.68575  -0.67691  -0.64818  -0.64161
 Alpha  occ. eigenvalues --   -0.61583  -0.59625  -0.58550  -0.55824  -0.54858
 Alpha  occ. eigenvalues --   -0.54661  -0.53912  -0.52784  -0.51757  -0.51036
 Alpha  occ. eigenvalues --   -0.49782  -0.49227  -0.48739  -0.47682  -0.47476
 Alpha  occ. eigenvalues --   -0.46721  -0.45678  -0.45402  -0.45003  -0.44017
 Alpha  occ. eigenvalues --   -0.43642  -0.43329  -0.41869  -0.41152  -0.40587
 Alpha  occ. eigenvalues --   -0.40226  -0.38518  -0.37649  -0.37248  -0.36672
 Alpha  occ. eigenvalues --   -0.35394  -0.32622  -0.30482  -0.28122  -0.27464
 Alpha  occ. eigenvalues --   -0.24377
 Alpha virt. eigenvalues --    0.01075   0.05668   0.08009   0.09476   0.10470
 Alpha virt. eigenvalues --    0.12604   0.13601   0.13938   0.14635   0.15776
 Alpha virt. eigenvalues --    0.16617   0.18944   0.19648   0.20112   0.20798

 Mulliken charges:
               1
     1  O   -0.564144
     2  C    0.592383
     3  C   -0.102443
     4  C   -0.335941
     5  C    0.063672
     6  C    0.002075
     7  N   -0.689763
     8  C    0.285872
     9  C    0.320074
    10  O   -0.661577
    11  C   -0.219676
    12  C   -0.212865
    13  C    0.095966
    14  C    0.234869
    15  C   -0.315285
    16  C   -0.073207
    17  C   -0.433161
    18  C   -0.443702
    19  N   -0.430847
    20  C   -0.013184
    21  O   -0.471139
    22  H    0.412007
    23  H    0.179366
    24  H    0.164281
    25  H    0.163852
    26  H    0.161327
    27  H    0.345018
    28  H    0.418341
    29  H    0.121318
    30  H    0.139598
    31  H    0.160818
    32  H    0.132285
    33  H    0.124223
    34  H    0.147924
    35  H    0.146390
    36  H    0.131643
    37  H    0.137256
    38  H    0.150745
    39  H    0.135634
 Sum of Mulliken charges =  -0.00000

 Dipole moment (field-independent basis, Debye):
    X=              2.8204    Y=             -3.1032    Z=             -0.3265  Tot=              4.2061
 Quadrupole moment (field-independent basis, Debye-Ang):
   XX=           -113.8506   YY=           -119.7516   ZZ=           -112.5287
   XY=             -6.2044   XZ=              0.8679   YZ=              6.8426

 Normal termination of Gaussian 16 at Thu Dec 28 13:32:50 2023.
