 Gaussian 16, Revision A.03,
 Gaussian 16:  ES64L-G16RevA.03 25-Dec-2016

 --------------------------------------------
 # td=(nstates=20,root=20) cam-b3lyp/6-31g(d)
 --------------------------------------------

 -----
 Title
 -----
 Symbolic Z-matrix:
 Charge =  0 Multiplicity = 1

                         Standard orientation:
 ---------------------------------------------------------------------
 Center     Atomic      Atomic             Coordinates (Angstroms)
 Number     Number       Type             X           Y           Z
 ---------------------------------------------------------------------
      1          6           0        2.697200    1.917386    2.043886
      2          6           0        3.650218    1.348034    1.023597
      3          6           0        3.278821    0.214341    0.270755
      4          6           0        4.147547   -0.342133   -0.673927
      5          6           0        3.733344   -1.567308   -1.459497
      6          6           0        2.542035   -2.269600   -0.798375
      7          6           0        1.455580   -1.269425   -0.361547
      8          6           0        0.383698   -2.004202    0.466160
      9          6           0       -0.759513   -1.133284    1.056254
     10          6           0       -2.012321   -1.102056    0.219460
     11          6           0       -3.249247   -1.500450    0.555941
     12          6           0       -3.649340   -2.080923    1.890523
     13          6           0       -4.379748   -1.379877   -0.463104
     14          6           0       -5.389344   -0.324277   -0.104458
     15          6           0       -5.713080    0.731069   -0.864889
     16          6           0       -6.726991    1.726778   -0.418759
     17          6           0       -6.997231    2.882706   -1.367324
     18          8           0       -7.313409    1.627395    0.649360
     19          6           0        0.868887   -0.501262   -1.554947
     20          8           0        2.038360   -0.312472    0.558278
     21          6           0        5.401110    0.254487   -0.873562
     22          6           0        5.779845    1.376748   -0.143871
     23          8           0        6.995323    1.997275   -0.301974
     24          6           0        4.902486    1.914961    0.804619
     25          1           0        2.450510    1.177823    2.814993
     26          1           0        3.128244    2.795348    2.534063
     27          1           0        1.747678    2.211434    1.580821
     28          1           0        3.479929   -1.285330   -2.491400
     29          1           0        4.577117   -2.264032   -1.539756
     30          1           0        2.884111   -2.807407    0.094647
     31          1           0        2.106550   -3.012585   -1.476724
     32          1           0       -0.040863   -2.806599   -0.150363
     33          1           0        0.913190   -2.491917    1.293035
     34          1           0       -0.380510   -0.112234    1.196136
     35          1           0       -0.988246   -1.500746    2.060531
     36          1           0       -1.882923   -0.708304   -0.789215
     37          1           0       -4.122934   -3.063526    1.757226
     38          1           0       -4.386793   -1.445611    2.398568
     39          1           0       -2.804869   -2.207558    2.571086
     40          1           0       -3.968816   -1.174841   -1.457930
     41          1           0       -4.903139   -2.348799   -0.524204
     42          1           0       -5.902557   -0.416356    0.852368
     43          1           0       -5.239633    0.888125   -1.833493
     44          1           0       -7.752492    3.544770   -0.939938
     45          1           0       -6.075346    3.448491   -1.554471
     46          1           0       -7.343671    2.508194   -2.339324
     47          1           0        1.648295    0.042103   -2.097061
     48          1           0        0.136012    0.234674   -1.213765
     49          1           0        0.377255   -1.186409   -2.255194
     50          1           0        6.082844   -0.176764   -1.606590
     51          1           0        7.499091    1.522150   -0.980380
     52          1           0        5.216017    2.788032    1.369419
 ---------------------------------------------------------------------

 SCF Done:  E(RCAM-B3LYP) =  -1042.18193690     A.U. after   15 cycles

 Excitation energies and oscillator strengths:

 Excited State   1:      Singlet-A      3.9239 eV  315.97 nm  f=0.0003  <S**2>=0.000
      86 -> 90         0.65628
      86 -> 96        -0.10309
      87 -> 90        -0.18282

 Excited State   2:      Singlet-A      4.8803 eV  254.05 nm  f=0.0714  <S**2>=0.000
      88 -> 93         0.23221
      89 -> 91         0.66234

 Excited State   3:      Singlet-A      5.6133 eV  220.87 nm  f=0.1715  <S**2>=0.000
      85 -> 90        -0.13417
      86 -> 90         0.17626
      87 -> 90         0.65176

 Excited State   4:      Singlet-A      5.7957 eV  213.92 nm  f=0.0021  <S**2>=0.000
      89 -> 90         0.70073

 Excited State   5:      Singlet-A      5.8790 eV  210.89 nm  f=0.0889  <S**2>=0.000
      88 -> 91        -0.35450
      89 -> 92         0.18199
      89 -> 93         0.56883

 Excited State   6:      Singlet-A      5.9932 eV  206.87 nm  f=0.4110  <S**2>=0.000
      85 -> 90         0.67733
      87 -> 90         0.12629

 Excited State   7:      Singlet-A      6.7704 eV  183.13 nm  f=0.7347  <S**2>=0.000
      88 -> 91         0.55406
      89 -> 92         0.14034
      89 -> 93         0.29930
      89 -> 94         0.20582
      89 -> 95         0.13457

 Excited State   8:      Singlet-A      6.7810 eV  182.84 nm  f=0.1325  <S**2>=0.000
      84 -> 94        -0.11914
      84 -> 95        -0.10384
      88 -> 91        -0.22755
      89 -> 93        -0.13926
      89 -> 94         0.48417
      89 -> 95         0.34455
      89 -> 96        -0.17606

 Excited State   9:      Singlet-A      7.0633 eV  175.53 nm  f=0.0114  <S**2>=0.000
      88 -> 90         0.69582

 Excited State  10:      Singlet-A      7.0892 eV  174.89 nm  f=0.3772  <S**2>=0.000
      84 -> 91        -0.13069
      88 -> 90         0.11983
      88 -> 92         0.18729
      88 -> 93         0.60306
      89 -> 91        -0.23704

 Excited State  11:      Singlet-A      7.1936 eV  172.35 nm  f=0.0295  <S**2>=0.000
      89 -> 92         0.62014
      89 -> 93        -0.20421
      89 -> 96         0.15425

 Excited State  12:      Singlet-A      7.3646 eV  168.35 nm  f=0.4701  <S**2>=0.000
      87 -> 92         0.63797
      87 -> 93        -0.17200

 Excited State  13:      Singlet-A      7.4727 eV  165.92 nm  f=0.0013  <S**2>=0.000
      72 -> 90        -0.10515
      73 -> 90         0.16940
      74 -> 90         0.21407
      78 -> 90         0.21105
      79 -> 90        -0.11018
      80 -> 90        -0.11517
      86 -> 90         0.15389
      86 -> 92        -0.18179
      86 -> 95         0.28816
      86 -> 96         0.32528

 Excited State  14:      Singlet-A      7.5627 eV  163.94 nm  f=0.0168  <S**2>=0.000
      66 -> 90         0.13913
      71 -> 90         0.15884
      73 -> 90         0.14477
      74 -> 90         0.15141
      78 -> 90         0.44654
      79 -> 90        -0.16615
      86 -> 92         0.14506
      86 -> 95        -0.18447
      86 -> 96        -0.20865
      87 -> 92         0.10292

 Excited State  15:      Singlet-A      7.6107 eV  162.91 nm  f=0.0059  <S**2>=0.000
      89 -> 92        -0.19786
      89 -> 94         0.37385
      89 -> 95        -0.30093
      89 -> 96         0.38365
      89 -> 97        -0.12590
      89 ->105         0.12667

 Excited State  16:      Singlet-A      7.6611 eV  161.84 nm  f=0.0269  <S**2>=0.000
      81 -> 91         0.16566
      82 -> 91        -0.13500
      83 -> 91         0.27969
      84 -> 91         0.52716
      87 -> 91         0.23350
      88 -> 93         0.11256

 Excited State  17:      Singlet-A      7.7988 eV  158.98 nm  f=0.0018  <S**2>=0.000
      80 -> 90         0.16921
      80 -> 92        -0.20156
      81 -> 92        -0.10454
      85 -> 92         0.53870
      85 -> 93        -0.15569
      86 -> 95         0.11978
      86 -> 96         0.12833

 Excited State  18:      Singlet-A      7.8081 eV  158.79 nm  f=0.0007  <S**2>=0.000
      89 -> 98        -0.14609
      89 -> 99        -0.33217
      89 ->100        -0.17979
      89 ->101         0.41073
      89 ->102        -0.28643
      89 ->105         0.15853

 Excited State  19:      Singlet-A      7.9552 eV  155.85 nm  f=0.0037  <S**2>=0.000
      82 -> 91        -0.20991
      83 -> 91         0.43331
      84 -> 91        -0.42249
      87 -> 91         0.25893

 Excited State  20:      Singlet-A      8.0455 eV  154.10 nm  f=0.0012  <S**2>=0.000
      81 -> 91        -0.20601
      82 -> 91         0.21962
      83 -> 91        -0.20708
      87 -> 91         0.56278
 This state for optimization and/or second-order correction.
 Total Energy, E(TD-HF/TD-DFT) =  -1041.88626909
 Copying the excited state density for this state as the 1-particle RhoCI density.

 The electronic state is 1-A.
 Alpha  occ. eigenvalues --  -19.23978 -19.23245 -19.19863 -10.34419 -10.32335
 Alpha  occ. eigenvalues --  -10.31071 -10.30348 -10.27989 -10.27043 -10.26945
 Alpha  occ. eigenvalues --  -10.26608 -10.26429 -10.26245 -10.26138 -10.26075
 Alpha  occ. eigenvalues --  -10.25772 -10.25699 -10.25625 -10.25527 -10.25436
 Alpha  occ. eigenvalues --  -10.25401 -10.25197 -10.24808 -10.24574  -1.12845
 Alpha  occ. eigenvalues --   -1.12627  -1.10459  -0.93069  -0.91324  -0.90265
 Alpha  occ. eigenvalues --   -0.87459  -0.85862  -0.83384  -0.82625  -0.81359
 Alpha  occ. eigenvalues --   -0.78522  -0.77304  -0.76687  -0.75525  -0.72706
 Alpha  occ. eigenvalues --   -0.70096  -0.67532  -0.66734  -0.65443  -0.61231
 Alpha  occ. eigenvalues --   -0.60243  -0.58992  -0.58547  -0.57601  -0.55838
 Alpha  occ. eigenvalues --   -0.54647  -0.53497  -0.52419  -0.52266  -0.51898
 Alpha  occ. eigenvalues --   -0.50741  -0.50536  -0.50310  -0.49254  -0.48660
 Alpha  occ. eigenvalues --   -0.48055  -0.47613  -0.46854  -0.46511  -0.46307
 Alpha  occ. eigenvalues --   -0.45757  -0.45618  -0.45502  -0.44772  -0.44419
 Alpha  occ. eigenvalues --   -0.43470  -0.43258  -0.43004  -0.42886  -0.42508
 Alpha  occ. eigenvalues --   -0.42008  -0.41805  -0.41435  -0.40793  -0.38790
 Alpha  occ. eigenvalues --   -0.38600  -0.37666  -0.35828  -0.34537  -0.31819
 Alpha  occ. eigenvalues --   -0.30477  -0.29155  -0.28704  -0.24208
 Alpha virt. eigenvalues --    0.00543   0.05106   0.07631   0.08058   0.12300
 Alpha virt. eigenvalues --    0.12558   0.12745   0.14473   0.15117   0.15792
 Alpha virt. eigenvalues --    0.16119   0.16334   0.16569   0.17273   0.17920

 Mulliken charges:
               1
     1  C   -0.509082
     2  C    0.109289
     3  C    0.258892
     4  C    0.129698
     5  C   -0.356543
     6  C   -0.285632
     7  C    0.291992
     8  C   -0.271542
     9  C   -0.325254
    10  C   -0.162962
    11  C    0.162686
    12  C   -0.518184
    13  C   -0.382408
    14  C   -0.056799
    15  C   -0.196104
    16  C    0.426877
    17  C   -0.538188
    18  O   -0.457453
    19  C   -0.464382
    20  O   -0.570411
    21  C   -0.280870
    22  C    0.359500
    23  O   -0.657411
    24  C   -0.234364
    25  H    0.166602
    26  H    0.149835
    27  H    0.163316
    28  H    0.155804
    29  H    0.153702
    30  H    0.151303
    31  H    0.139591
    32  H    0.139032
    33  H    0.146242
    34  H    0.171538
    35  H    0.143030
    36  H    0.118446
    37  H    0.153652
    38  H    0.167080
    39  H    0.161117
    40  H    0.150449
    41  H    0.157273
    42  H    0.172546
    43  H    0.127398
    44  H    0.180380
    45  H    0.169587
    46  H    0.168371
    47  H    0.160478
    48  H    0.163108
    49  H    0.142677
    50  H    0.112249
    51  H    0.407244
    52  H    0.136606
 Sum of Mulliken charges =  -0.00000

 Dipole moment (field-independent basis, Debye):
    X=              1.7512    Y=             -2.6802    Z=             -3.5815  Tot=              4.8039
 Quadrupole moment (field-independent basis, Debye-Ang):
   XX=           -164.0129   YY=           -141.5661   ZZ=           -138.5309
   XY=             -3.0524   XZ=              3.3532   YZ=             -3.1891

 Normal termination of Gaussian 16 at Thu Dec 28 13:33:07 2023.
