 Gaussian 16, Revision A.03,
 Gaussian 16:  ES64L-G16RevA.03 25-Dec-2016

 --------------------------------------------
 # td=(nstates=20,root=20) cam-b3lyp/6-31g(d)
 --------------------------------------------

 -----
 Title
 -----
 Symbolic Z-matrix:
 Charge =  0 Multiplicity = 1

                         Standard orientation:
 ---------------------------------------------------------------------
 Center     Atomic      Atomic             Coordinates (Angstroms)
 Number     Number       Type             X           Y           Z
 ---------------------------------------------------------------------
      1          8           0        0.030533    1.499158   -0.738279
      2          6           0       -1.143223    1.227598   -0.434602
      3          6           0       -2.134836    2.290767   -0.252896
      4          8           0       -1.778872    3.598231   -0.471589
      5          6           0       -0.727952    4.117293    0.353767
      6          6           0       -3.446819    2.023292    0.039487
      7          6           0       -4.506064    3.075262    0.196121
      8          7           0       -3.850596    0.721999    0.170954
      9          6           0       -2.999812   -0.351812    0.041869
     10          6           0       -1.629170   -0.160480   -0.238291
     11          6           0       -0.794745   -1.315188   -0.380909
     12          6           0        0.712011   -1.224104   -0.654477
     13          8           0        1.217353   -2.467789   -1.161961
     14          6           0        1.489946   -0.776603    0.600398
     15          6           0        2.921178   -0.271183    0.349220
     16          6           0        3.934207   -1.323175   -0.129706
     17          6           0        5.352889   -0.773455   -0.360049
     18          6           0        6.078919   -0.309955    0.912341
     19          6           0        7.546971    0.094037    0.693995
     20          6           0        7.739179    1.339274   -0.180259
     21          6           0       -1.373078   -2.567553   -0.252328
     22          6           0       -2.738518   -2.749158    0.036297
     23          6           0       -3.554138   -1.648065    0.191140
     24          8           0       -4.898524   -1.662023    0.469829
     25          6           0       -5.532791   -2.925250    0.608073
     26          1           0       -0.631362    5.170763    0.080313
     27          1           0       -0.996577    4.043071    1.416918
     28          1           0        0.208499    3.589369    0.167586
     29          1           0       -5.260845    2.993559   -0.596905
     30          1           0       -5.022932    2.974214    1.159036
     31          1           0       -4.054739    4.065116    0.136951
     32          1           0       -4.820782    0.510314    0.360690
     33          1           0        0.878527   -0.495103   -1.448066
     34          1           0        1.506387   -2.997522   -0.402835
     35          1           0        1.498005   -1.618973    1.314289
     36          1           0        0.927690    0.026005    1.084043
     37          1           0        2.868771    0.548065   -0.380868
     38          1           0        3.280230    0.178039    1.284950
     39          1           0        3.571177   -1.771789   -1.060327
     40          1           0        3.983976   -2.140789    0.608331
     41          1           0        5.958027   -1.556956   -0.839666
     42          1           0        5.298969    0.052475   -1.082837
     43          1           0        6.044141   -1.123896    1.651676
     44          1           0        5.542734    0.535707    1.365269
     45          1           0        8.012137    0.272698    1.673181
     46          1           0        8.091315   -0.751575    0.248941
     47          1           0        7.365406    1.185261   -1.198563
     48          1           0        7.206853    2.201813    0.240499
     49          1           0        8.799290    1.607917   -0.256219
     50          1           0       -0.754519   -3.442722   -0.410668
     51          1           0       -3.135802   -3.754084    0.126846
     52          1           0       -5.457416   -3.511157   -0.316704
     53          1           0       -5.099569   -3.498893    1.437243
     54          1           0       -6.582269   -2.714779    0.821070
 ---------------------------------------------------------------------

 SCF Done:  E(RCAM-B3LYP) =  -1134.64886436     A.U. after   16 cycles

 Excitation energies and oscillator strengths:

 Excited State   1:      Singlet-A      4.1359 eV  299.78 nm  f=0.0006  <S**2>=0.000
      91 -> 95         0.10012
      92 -> 95         0.35138
      93 -> 95         0.55310
      93 -> 97         0.10972
      93 ->103         0.10431

 Excited State   2:      Singlet-A      4.3135 eV  287.43 nm  f=0.2029  <S**2>=0.000
      91 -> 96        -0.11801
      94 -> 95         0.67932

 Excited State   3:      Singlet-A      4.7188 eV  262.75 nm  f=0.0834  <S**2>=0.000
      91 -> 95         0.28107
      94 -> 96         0.62619

 Excited State   4:      Singlet-A      5.3981 eV  229.68 nm  f=0.0054  <S**2>=0.000
      92 -> 95         0.53472
      93 -> 95        -0.37363
      93 -> 96         0.14578
      94 -> 96        -0.10071
      94 -> 97         0.13756

 Excited State   5:      Singlet-A      5.6836 eV  218.14 nm  f=0.0793  <S**2>=0.000
      91 -> 95         0.22277
      92 -> 95        -0.19670
      93 -> 96         0.59358
      94 -> 96        -0.12039

 Excited State   6:      Singlet-A      5.7427 eV  215.90 nm  f=0.3346  <S**2>=0.000
      91 -> 95         0.48803
      92 -> 96        -0.36345
      93 -> 96        -0.19597
      94 -> 96        -0.23189

 Excited State   7:      Singlet-A      6.0091 eV  206.33 nm  f=0.0405  <S**2>=0.000
      91 -> 95        -0.25812
      91 -> 97        -0.12367
      92 -> 96        -0.30808
      93 -> 95         0.12974
      94 -> 97         0.52628

 Excited State   8:      Singlet-A      6.0835 eV  203.80 nm  f=0.1835  <S**2>=0.000
      91 -> 95         0.17604
      91 -> 97         0.14663
      92 -> 96         0.44660
      93 -> 96        -0.16095
      94 -> 97         0.42367

 Excited State   9:      Singlet-A      6.3797 eV  194.34 nm  f=0.0045  <S**2>=0.000
      89 -> 95         0.10806
      90 -> 95         0.62680
      90 -> 97        -0.13919
      93 -> 97         0.13628

 Excited State  10:      Singlet-A      6.5524 eV  189.22 nm  f=0.1424  <S**2>=0.000
      88 -> 95         0.14401
      89 -> 95        -0.34130
      89 -> 96        -0.11338
      89 -> 97        -0.11554
      91 -> 96         0.50701
      93 -> 97         0.11419

 Excited State  11:      Singlet-A      6.7293 eV  184.25 nm  f=0.0749  <S**2>=0.000
      88 -> 95        -0.17776
      89 -> 95         0.43568
      89 -> 96         0.12660
      91 -> 96         0.36773
      92 -> 97        -0.13733
      93 -> 96        -0.10210
      93 -> 97         0.20924

 Excited State  12:      Singlet-A      6.8860 eV  180.05 nm  f=0.0473  <S**2>=0.000
      90 -> 95        -0.18919
      90 -> 96         0.14030
      91 -> 96        -0.13411
      92 -> 97         0.29582
      93 -> 97         0.52469

 Excited State  13:      Singlet-A      7.0776 eV  175.18 nm  f=0.0006  <S**2>=0.000
      94 -> 98         0.64544
      94 -> 99         0.16025

 Excited State  14:      Singlet-A      7.2126 eV  171.90 nm  f=0.0246  <S**2>=0.000
      87 -> 96         0.10011
      90 -> 96         0.62296
      90 -> 97        -0.15770
      93 -> 97        -0.13669

 Excited State  15:      Singlet-A      7.2775 eV  170.37 nm  f=0.8075  <S**2>=0.000
      89 -> 95         0.11649
      91 -> 96         0.20472
      92 -> 97         0.56694
      93 -> 96        -0.10461
      93 -> 97        -0.24733

 Excited State  16:      Singlet-A      7.4842 eV  165.66 nm  f=0.0535  <S**2>=0.000
      89 -> 95         0.14639
      89 -> 96        -0.24843
      91 -> 97         0.56612
      92 -> 96        -0.15748
      93 -> 96         0.10480

 Excited State  17:      Singlet-A      7.5370 eV  164.50 nm  f=0.0692  <S**2>=0.000
      85 -> 95         0.36787
      86 -> 95        -0.12792
      88 -> 95         0.30400
      89 -> 95         0.25083
      89 -> 96        -0.23925
      89 -> 97        -0.11107
      91 -> 97        -0.17460
      92 -> 97        -0.12172

 Excited State  18:      Singlet-A      7.6945 eV  161.13 nm  f=0.0449  <S**2>=0.000
      85 -> 95         0.19897
      88 -> 95         0.29838
      88 -> 96        -0.16465
      89 -> 96         0.43812
      91 -> 97         0.18061
      94 ->104        -0.10223

 Excited State  19:      Singlet-A      7.7266 eV  160.46 nm  f=0.0164  <S**2>=0.000
      89 -> 96         0.12773
      92 -> 98         0.18680
      92 ->100         0.11574
      93 -> 98        -0.18807
      94 -> 99         0.36359
      94 ->100        -0.23671
      94 ->104         0.33122
      94 ->105        -0.14516

 Excited State  20:      Singlet-A      7.8863 eV  157.22 nm  f=0.0018  <S**2>=0.000
      91 ->102         0.10714
      93 ->102        -0.15323
      94 -> 99        -0.16193
      94 ->102         0.54916
      94 ->103        -0.10221
      94 ->104         0.13945
 This state for optimization and/or second-order correction.
 Total Energy, E(TD-HF/TD-DFT) =  -1134.35904891
 Copying the excited state density for this state as the 1-particle RhoCI density.

 The electronic state is 1-A.
 Alpha  occ. eigenvalues --  -19.26902 -19.22504 -19.20490 -19.17062 -14.46165
 Alpha  occ. eigenvalues --  -10.33058 -10.32900 -10.32891 -10.32116 -10.31796
 Alpha  occ. eigenvalues --  -10.30094 -10.29330 -10.28706 -10.27245 -10.27134
 Alpha  occ. eigenvalues --  -10.27115 -10.26593 -10.25605 -10.24175 -10.24141
 Alpha  occ. eigenvalues --  -10.23778 -10.23589 -10.23470 -10.23455 -10.23285
 Alpha  occ. eigenvalues --   -1.16192  -1.12180  -1.08526  -1.07441  -1.06297
 Alpha  occ. eigenvalues --   -0.93756  -0.88086  -0.87600  -0.85535  -0.84870
 Alpha  occ. eigenvalues --   -0.83541  -0.81374  -0.79742  -0.78483  -0.75815
 Alpha  occ. eigenvalues --   -0.74932  -0.71749  -0.70071  -0.69003  -0.67563
 Alpha  occ. eigenvalues --   -0.66154  -0.64496  -0.62319  -0.61777  -0.61248
 Alpha  occ. eigenvalues --   -0.59612  -0.56787  -0.55629  -0.54726  -0.53709
 Alpha  occ. eigenvalues --   -0.53167  -0.53086  -0.52568  -0.51820  -0.51009
 Alpha  occ. eigenvalues --   -0.50452  -0.50019  -0.49762  -0.49200  -0.48924
 Alpha  occ. eigenvalues --   -0.48244  -0.47471  -0.47318  -0.46921  -0.46025
 Alpha  occ. eigenvalues --   -0.44762  -0.44335  -0.43622  -0.43290  -0.42912
 Alpha  occ. eigenvalues --   -0.42388  -0.41911  -0.40843  -0.40408  -0.40044
 Alpha  occ. eigenvalues --   -0.39773  -0.39229  -0.38079  -0.37678  -0.36873
 Alpha  occ. eigenvalues --   -0.36338  -0.35871  -0.35273  -0.34308  -0.31839
 Alpha  occ. eigenvalues --   -0.30008  -0.28750  -0.28014  -0.24135
 Alpha virt. eigenvalues --    0.00913   0.03931   0.07586   0.12474   0.13350
 Alpha virt. eigenvalues --    0.13863   0.14965   0.15249   0.15997   0.16433
 Alpha virt. eigenvalues --    0.17512   0.17966   0.18190   0.18839   0.19266

 Mulliken charges:
               1
     1  O   -0.555384
     2  C    0.399787
     3  C    0.197867
     4  O   -0.529136
     5  C   -0.218308
     6  C    0.344846
     7  C   -0.530283
     8  N   -0.781213
     9  C    0.259081
    10  C    0.009750
    11  C    0.066611
    12  C    0.077219
    13  O   -0.631654
    14  C   -0.283817
    15  C   -0.258095
    16  C   -0.275271
    17  C   -0.258560
    18  C   -0.253563
    19  C   -0.251283
    20  C   -0.443747
    21  C   -0.207859
    22  C   -0.203266
    23  C    0.363832
    24  O   -0.552241
    25  C   -0.218833
    26  H    0.154120
    27  H    0.127782
    28  H    0.192962
    29  H    0.174416
    30  H    0.164614
    31  H    0.204410
    32  H    0.352314
    33  H    0.183190
    34  H    0.389752
    35  H    0.106021
    36  H    0.156447
    37  H    0.154613
    38  H    0.128444
    39  H    0.160236
    40  H    0.107129
    41  H    0.124690
    42  H    0.134618
    43  H    0.123546
    44  H    0.131837
    45  H    0.128684
    46  H    0.128524
    47  H    0.148472
    48  H    0.140753
    49  H    0.140227
    50  H    0.135248
    51  H    0.142305
    52  H    0.162935
    53  H    0.160938
    54  H    0.174295
 Sum of Mulliken charges =  -0.00000

 Dipole moment (field-independent basis, Debye):
    X=             -5.6828    Y=             -1.9119    Z=              3.6141  Tot=              7.0008
 Quadrupole moment (field-independent basis, Debye-Ang):
   XX=           -120.0943   YY=           -138.3198   ZZ=           -156.0228
   XY=              6.5206   XZ=             -2.4514   YZ=              0.1426

 Normal termination of Gaussian 16 at Thu Dec 28 13:10:55 2023.
