 Gaussian 16, Revision A.03,
 Gaussian 16:  ES64L-G16RevA.03 25-Dec-2016

 --------------------------------------------
 # td=(nstates=20,root=20) cam-b3lyp/6-31g(d)
 --------------------------------------------

 -----
 Title
 -----
 Symbolic Z-matrix:
 Charge =  0 Multiplicity = 1

                         Standard orientation:
 ---------------------------------------------------------------------
 Center     Atomic      Atomic             Coordinates (Angstroms)
 Number     Number       Type             X           Y           Z
 ---------------------------------------------------------------------
      1          6           0        2.845949   -1.462920    1.155591
      2          6           0        2.329428   -0.966092   -0.213447
      3          6           0        3.152012    0.212885   -0.765478
      4          6           0        2.872185    1.516998   -0.010354
      5          6           0        0.857088   -0.601836   -0.141346
      6          6           0        0.416277    0.731811   -0.035534
      7          6           0       -0.949082    1.039195    0.028997
      8          6           0       -1.896285    0.020167   -0.008138
      9          6           0       -3.335965    0.384276    0.063992
     10          8           0       -4.158212   -0.699298    0.016853
     11          8           0       -3.767461    1.514550    0.155220
     12          6           0       -1.477282   -1.315266   -0.111289
     13          6           0       -0.120326   -1.617087   -0.174280
     14          8           0        0.329348   -2.908192   -0.275743
     15          6           0        1.393126    1.869496    0.011301
     16          8           0        1.014696    3.027580    0.083465
     17          1           0        2.760876   -0.691476    1.928842
     18          1           0        3.900263   -1.753831    1.079209
     19          1           0        2.276054   -2.335475    1.487308
     20          1           0        2.425518   -1.806525   -0.910978
     21          1           0        2.905847    0.354041   -1.826296
     22          1           0        4.220590   -0.029147   -0.719992
     23          1           0        3.413637    2.368038   -0.434775
     24          1           0        3.200163    1.431230    1.036101
     25          1           0       -1.258811    2.074622    0.108691
     26          1           0       -5.063696   -0.341689    0.070591
     27          1           0       -2.216806   -2.110493   -0.143784
     28          1           0       -0.433356   -3.506171   -0.313379
 ---------------------------------------------------------------------

 SCF Done:  E(RCAM-B3LYP) =  -765.066761407     A.U. after   15 cycles

 Excitation energies and oscillator strengths:

 Excited State   1:      Singlet-A      3.8360 eV  323.21 nm  f=0.0000  <S**2>=0.000
      57 -> 59         0.55691
      57 -> 60        -0.35937
      57 -> 61         0.17896

 Excited State   2:      Singlet-A      4.4823 eV  276.61 nm  f=0.0927  <S**2>=0.000
      56 -> 60         0.23156
      58 -> 59         0.65641

 Excited State   3:      Singlet-A      5.1752 eV  239.57 nm  f=0.0002  <S**2>=0.000
      55 -> 59         0.46179
      55 -> 60         0.45885
      55 -> 61        -0.14476
      55 -> 64        -0.18068

 Excited State   4:      Singlet-A      5.2844 eV  234.62 nm  f=0.0345  <S**2>=0.000
      56 -> 59        -0.46301
      58 -> 60         0.51525

 Excited State   5:      Singlet-A      5.7887 eV  214.18 nm  f=0.0381  <S**2>=0.000
      56 -> 59         0.13698
      57 -> 59         0.36626
      57 -> 60         0.51938
      58 -> 60         0.20785

 Excited State   6:      Singlet-A      5.8125 eV  213.31 nm  f=0.2552  <S**2>=0.000
      56 -> 59         0.48655
      57 -> 60        -0.22165
      58 -> 60         0.42686

 Excited State   7:      Singlet-A      6.0117 eV  206.24 nm  f=0.5712  <S**2>=0.000
      56 -> 60         0.64607
      58 -> 59        -0.23468

 Excited State   8:      Singlet-A      6.7525 eV  183.61 nm  f=0.0008  <S**2>=0.000
      51 -> 59        -0.19927
      52 -> 59         0.14610
      53 -> 59         0.15522
      55 -> 59         0.43564
      55 -> 60        -0.40661
      57 -> 61        -0.11268

 Excited State   9:      Singlet-A      7.0264 eV  176.46 nm  f=0.0022  <S**2>=0.000
      48 -> 59        -0.13479
      51 -> 59         0.31489
      52 -> 59        -0.13121
      53 -> 59         0.54284
      53 -> 60        -0.11287
      54 -> 59        -0.11253

 Excited State  10:      Singlet-A      7.1246 eV  174.02 nm  f=0.0037  <S**2>=0.000
      51 -> 59         0.36825
      52 -> 59        -0.29992
      53 -> 59        -0.25028
      55 -> 59         0.24602
      55 -> 60        -0.25374
      57 -> 61         0.16554

 Excited State  11:      Singlet-A      7.2264 eV  171.57 nm  f=0.0022  <S**2>=0.000
      50 -> 62         0.11231
      58 -> 61        -0.10388
      58 -> 62         0.66401

 Excited State  12:      Singlet-A      7.4037 eV  167.46 nm  f=0.0038  <S**2>=0.000
      50 -> 59         0.17771
      54 -> 59         0.58194
      54 -> 60         0.23418
      58 -> 61        -0.15911

 Excited State  13:      Singlet-A      7.4375 eV  166.70 nm  f=0.0542  <S**2>=0.000
      50 -> 59        -0.10017
      51 -> 60        -0.10385
      52 -> 59         0.24138
      53 -> 59         0.12263
      57 -> 59        -0.13598
      57 -> 61         0.45466
      57 -> 64        -0.19530
      58 -> 61        -0.28830

 Excited State  14:      Singlet-A      7.4712 eV  165.95 nm  f=0.2155  <S**2>=0.000
      52 -> 59         0.14815
      54 -> 59         0.13876
      54 -> 60         0.14626
      57 -> 61         0.20410
      58 -> 61         0.57749

 Excited State  15:      Singlet-A      7.5697 eV  163.79 nm  f=0.0043  <S**2>=0.000
      50 -> 59         0.48596
      51 -> 59        -0.25516
      52 -> 59        -0.14235
      52 -> 60         0.12572
      54 -> 60        -0.16592
      56 -> 61        -0.24357
      57 -> 61         0.13344

 Excited State  16:      Singlet-A      7.6051 eV  163.03 nm  f=0.0599  <S**2>=0.000
      50 -> 59         0.28684
      51 -> 59         0.31596
      52 -> 59         0.45985
      52 -> 60        -0.11880
      53 -> 59        -0.13434
      54 -> 60        -0.16579

 Excited State  17:      Singlet-A      7.8037 eV  158.88 nm  f=0.0026  <S**2>=0.000
      45 -> 60        -0.11442
      47 -> 59        -0.15934
      48 -> 60        -0.23945
      49 -> 59         0.15876
      49 -> 60         0.17276
      51 -> 60         0.33835
      52 -> 60        -0.15024
      53 -> 60         0.38489

 Excited State  18:      Singlet-A      7.9457 eV  156.04 nm  f=0.0009  <S**2>=0.000
      45 -> 59         0.17034
      48 -> 59         0.16287
      51 -> 60         0.35158
      52 -> 60        -0.28489
      53 -> 60        -0.31912
      57 -> 61         0.13578

 Excited State  19:      Singlet-A      8.0255 eV  154.49 nm  f=0.0267  <S**2>=0.000
      50 -> 59         0.20100
      52 -> 60         0.11805
      56 -> 61         0.55823
      58 -> 64         0.26661

 Excited State  20:      Singlet-A      8.0876 eV  153.30 nm  f=0.0008  <S**2>=0.000
      50 -> 60         0.24186
      54 -> 59        -0.26330
      54 -> 60         0.53777
      56 -> 61        -0.12550
      58 -> 61        -0.11713
 This state for optimization and/or second-order correction.
 Total Energy, E(TD-HF/TD-DFT) =  -764.769546814
 Copying the excited state density for this state as the 1-particle RhoCI density.

 The electronic state is 1-A.
 Alpha  occ. eigenvalues --  -19.27364 -19.26750 -19.21438 -19.20793 -10.40324
 Alpha  occ. eigenvalues --  -10.34998 -10.34073 -10.29087 -10.28940 -10.28638
 Alpha  occ. eigenvalues --  -10.28056 -10.27796 -10.27330 -10.26753 -10.26577
 Alpha  occ. eigenvalues --  -10.25565  -1.18959  -1.15553  -1.11482  -1.09551
 Alpha  occ. eigenvalues --   -0.96177  -0.91528  -0.85157  -0.84728  -0.82182
 Alpha  occ. eigenvalues --   -0.75380  -0.74445  -0.72343  -0.67882  -0.66347
 Alpha  occ. eigenvalues --   -0.62362  -0.59683  -0.58412  -0.56207  -0.55076
 Alpha  occ. eigenvalues --   -0.54665  -0.54017  -0.52505  -0.50902  -0.50360
 Alpha  occ. eigenvalues --   -0.49480  -0.48764  -0.48132  -0.47344  -0.45869
 Alpha  occ. eigenvalues --   -0.45671  -0.45172  -0.44060  -0.43685  -0.40551
 Alpha  occ. eigenvalues --   -0.40275  -0.39261  -0.38912  -0.38443  -0.34618
 Alpha  occ. eigenvalues --   -0.31729  -0.30787  -0.28937
 Alpha virt. eigenvalues --   -0.01771   0.00643   0.08663   0.10238   0.12277
 Alpha virt. eigenvalues --    0.12394   0.13955   0.16447   0.17311   0.18877
 Alpha virt. eigenvalues --    0.20656   0.21285   0.21679   0.23394   0.23789

 Mulliken charges:
               1
     1  C   -0.451615
     2  C   -0.154598
     3  C   -0.287890
     4  C   -0.366433
     5  C    0.081657
     6  C   -0.000138
     7  C   -0.206251
     8  C    0.049727
     9  C    0.544891
    10  O   -0.595549
    11  O   -0.458378
    12  C   -0.221714
    13  C    0.293633
    14  O   -0.650753
    15  C    0.404225
    16  O   -0.452546
    17  H    0.147489
    18  H    0.148471
    19  H    0.168767
    20  H    0.162180
    21  H    0.151724
    22  H    0.145244
    23  H    0.175298
    24  H    0.174036
    25  H    0.199482
    26  H    0.420575
    27  H    0.160311
    28  H    0.418157
 Sum of Mulliken charges =  -0.00000

 Dipole moment (field-independent basis, Debye):
    X=              0.6028    Y=             -5.1900    Z=             -0.3085  Tot=              5.2340
 Quadrupole moment (field-independent basis, Debye-Ang):
   XX=            -79.3534   YY=            -99.2333   ZZ=            -91.4522
   XY=              9.2385   XZ=              0.3571   YZ=             -0.2457

 Normal termination of Gaussian 16 at Thu Dec 28 13:13:51 2023.
