 Gaussian 16, Revision A.03,
 Gaussian 16:  ES64L-G16RevA.03 25-Dec-2016

 --------------------------------------------
 # td=(nstates=20,root=20) cam-b3lyp/6-31g(d)
 --------------------------------------------

 -----
 Title
 -----
 Symbolic Z-matrix:
 Charge =  0 Multiplicity = 1

                         Standard orientation:
 ---------------------------------------------------------------------
 Center     Atomic      Atomic             Coordinates (Angstroms)
 Number     Number       Type             X           Y           Z
 ---------------------------------------------------------------------
      1          8           0        1.919317   -1.822238   -0.918257
      2          6           0        1.451094   -0.772971   -0.486848
      3          6           0       -0.112710   -0.626747   -0.513560
      4          8           0       -0.533154   -1.061943   -1.814222
      5          6           0       -0.632540    0.786363   -0.217838
      6          6           0       -2.003982    1.096172   -0.313821
      7          6           0       -2.440805    2.418444   -0.054848
      8          6           0       -3.898098    2.818056   -0.150945
      9          6           0       -1.507275    3.394422    0.314158
     10          6           0       -0.163461    3.083079    0.442344
     11          6           0        0.287509    1.782219    0.177586
     12          6           0        1.703948    1.496571    0.324215
     13          6           0        2.290515    0.309814    0.040027
     14          6           0        3.797341    0.100080    0.188273
     15          6           0        4.463035   -0.118113   -1.183256
     16          8           0        4.306622    1.315568    0.765032
     17          6           0        4.098751   -1.069136    1.143367
     18          6           0       -3.020979    0.012650   -0.619404
     19          6           0       -3.134268   -1.025010    0.520408
     20          6           0       -2.087224   -2.163354    0.526424
     21          6           0       -2.275053   -2.963662    1.835143
     22          6           0       -2.342138   -3.132189   -0.649517
     23          6           0       -0.613181   -1.665368    0.530823
     24          1           0       -0.064341   -0.522887   -2.471213
     25          1           0       -4.307707    2.649809   -1.154455
     26          1           0       -4.018626    3.880972    0.079089
     27          1           0       -4.527828    2.256464    0.549915
     28          1           0       -1.847945    4.407305    0.514084
     29          1           0        0.552070    3.843107    0.745971
     30          1           0        2.333106    2.308645    0.675368
     31          1           0        4.288596    0.751035   -1.825808
     32          1           0        4.071487   -1.013011   -1.670820
     33          1           0        5.547295   -0.239410   -1.055391
     34          1           0        5.265775    1.201531    0.850398
     35          1           0        5.184721   -1.182495    1.260673
     36          1           0        3.666543   -0.868776    2.128997
     37          1           0        3.696756   -2.007777    0.756129
     38          1           0       -2.760735   -0.489397   -1.553814
     39          1           0       -4.003351    0.464412   -0.770041
     40          1           0       -3.100408   -0.494129    1.482321
     41          1           0       -4.125988   -1.495192    0.467796
     42          1           0       -3.286205   -3.385441    1.889484
     43          1           0       -2.127251   -2.330441    2.718738
     44          1           0       -1.563990   -3.796586    1.894933
     45          1           0       -1.621022   -3.957953   -0.628618
     46          1           0       -2.246517   -2.645515   -1.620687
     47          1           0       -3.347711   -3.564751   -0.569039
     48          1           0       -0.384798   -1.239084    1.517372
     49          1           0        0.022922   -2.549446    0.411802
 ---------------------------------------------------------------------

 SCF Done:  E(RCAM-B3LYP) =  -1002.92106916     A.U. after   15 cycles

 Excitation energies and oscillator strengths:

 Excited State   1:      Singlet-A      3.5201 eV  352.22 nm  f=0.0043  <S**2>=0.000
      83 -> 86         0.51701
      83 -> 88         0.17542
      84 -> 86         0.39050
      84 -> 88         0.10068
      85 -> 86        -0.11469

 Excited State   2:      Singlet-A      4.0525 eV  305.94 nm  f=0.2836  <S**2>=0.000
      83 -> 86         0.13601
      85 -> 86         0.67813

 Excited State   3:      Singlet-A      4.5578 eV  272.03 nm  f=0.0148  <S**2>=0.000
      83 -> 86        -0.35227
      84 -> 86         0.52300
      84 -> 88        -0.10723
      85 -> 87         0.25315

 Excited State   4:      Singlet-A      5.3712 eV  230.83 nm  f=0.0418  <S**2>=0.000
      78 -> 86        -0.11815
      80 -> 86        -0.17139
      81 -> 86         0.61225
      82 -> 86         0.14351
      85 -> 87        -0.11070

 Excited State   5:      Singlet-A      5.6501 eV  219.44 nm  f=0.2036  <S**2>=0.000
      81 -> 86         0.14410
      83 -> 86         0.16404
      84 -> 86        -0.23320
      84 -> 88        -0.18799
      85 -> 87         0.55885

 Excited State   6:      Singlet-A      5.7820 eV  214.43 nm  f=0.0048  <S**2>=0.000
      81 -> 86        -0.15410
      82 -> 86         0.67047

 Excited State   7:      Singlet-A      6.0007 eV  206.62 nm  f=0.0047  <S**2>=0.000
      80 -> 86         0.15774
      83 -> 87        -0.16979
      84 -> 87         0.51132
      85 -> 87         0.14490
      85 -> 88         0.37414

 Excited State   8:      Singlet-A      6.1768 eV  200.73 nm  f=0.0061  <S**2>=0.000
      73 -> 86         0.11897
      76 -> 86         0.26992
      78 -> 86         0.23644
      79 -> 86        -0.20761
      80 -> 86         0.11819
      81 -> 86         0.15393
      83 -> 86        -0.18880
      83 -> 88         0.29083
      84 -> 88         0.22893
      85 -> 88        -0.11433

 Excited State   9:      Singlet-A      6.3019 eV  196.74 nm  f=0.0797  <S**2>=0.000
      78 -> 86        -0.14623
      79 -> 86         0.11097
      80 -> 86         0.50166
      84 -> 87         0.12197
      85 -> 88        -0.38570

 Excited State  10:      Singlet-A      6.5644 eV  188.87 nm  f=0.0916  <S**2>=0.000
      76 -> 86        -0.16885
      78 -> 86        -0.19240
      79 -> 86         0.11486
      80 -> 86        -0.29187
      81 -> 86        -0.10950
      83 -> 87         0.25802
      83 -> 88         0.20144
      84 -> 87         0.29235
      84 -> 88         0.12437
      85 -> 88        -0.20800

 Excited State  11:      Singlet-A      6.6538 eV  186.34 nm  f=0.3115  <S**2>=0.000
      76 -> 86        -0.21506
      78 -> 86        -0.13351
      79 -> 86         0.19152
      80 -> 86         0.17534
      83 -> 88         0.19613
      84 -> 87        -0.28038
      84 -> 88         0.33006
      85 -> 88         0.27923

 Excited State  12:      Singlet-A      6.6880 eV  185.38 nm  f=0.0059  <S**2>=0.000
      75 -> 86         0.34857
      77 -> 86         0.15559
      78 -> 86         0.23139
      79 -> 86         0.30271
      81 -> 87         0.17696
      83 -> 87         0.31005
      84 -> 88        -0.10068
      85 -> 88         0.10490

 Excited State  13:      Singlet-A      6.8240 eV  181.69 nm  f=0.2317  <S**2>=0.000
      75 -> 86        -0.11887
      77 -> 86        -0.18579
      78 -> 86        -0.18078
      79 -> 86        -0.28038
      80 -> 86         0.17346
      81 -> 87         0.10372
      83 -> 87         0.43653
      84 -> 88        -0.16715
      85 -> 88         0.16545

 Excited State  14:      Singlet-A      6.8766 eV  180.30 nm  f=0.0563  <S**2>=0.000
      72 -> 86        -0.10787
      74 -> 86         0.21131
      75 -> 86        -0.29012
      76 -> 86        -0.29219
      77 -> 86         0.34104
      78 -> 86         0.15502
      83 -> 88         0.11172
      84 -> 88        -0.19811
      85 -> 87        -0.11504

 Excited State  15:      Singlet-A      7.0053 eV  176.99 nm  f=0.2004  <S**2>=0.000
      74 -> 86         0.17326
      77 -> 86         0.19908
      79 -> 86        -0.21500
      81 -> 87         0.12815
      83 -> 87         0.11038
      83 -> 88        -0.35749
      84 -> 88         0.37136
      85 -> 87         0.18596

 Excited State  16:      Singlet-A      7.0444 eV  176.01 nm  f=0.0461  <S**2>=0.000
      75 -> 86         0.36505
      76 -> 86        -0.14012
      77 -> 86         0.14067
      78 -> 86        -0.18777
      79 -> 86        -0.31485
      81 -> 87         0.10059
      81 -> 88         0.15220
      83 -> 87        -0.12194
      83 -> 88         0.23786

 Excited State  17:      Singlet-A      7.2087 eV  171.99 nm  f=0.0068  <S**2>=0.000
      73 -> 86        -0.12185
      74 -> 86         0.16635
      76 -> 86         0.32692
      77 -> 86         0.32662
      78 -> 86        -0.32186
      79 -> 86         0.11759
      81 -> 87        -0.25721

 Excited State  18:      Singlet-A      7.2862 eV  170.16 nm  f=0.0063  <S**2>=0.000
      75 -> 86        -0.18474
      76 -> 86         0.17326
      76 -> 87         0.18671
      77 -> 86         0.14190
      78 -> 86        -0.15951
      79 -> 86         0.13027
      80 -> 87        -0.12777
      81 -> 87         0.47836
      83 -> 87        -0.15615

 Excited State  19:      Singlet-A      7.3972 eV  167.61 nm  f=0.0104  <S**2>=0.000
      72 -> 86        -0.13095
      73 -> 86        -0.15800
      74 -> 86         0.49028
      75 -> 86         0.13352
      77 -> 86        -0.28616
      78 -> 86         0.10351
      83 -> 88         0.10691

 Excited State  20:      Singlet-A      7.6940 eV  161.14 nm  f=0.0134  <S**2>=0.000
      61 -> 86        -0.12388
      64 -> 86         0.13423
      69 -> 86         0.11337
      70 -> 86        -0.18809
      72 -> 86         0.16002
      73 -> 86         0.24647
      74 -> 86         0.18050
      80 -> 87         0.20512
      81 -> 88         0.33226
      82 -> 87         0.14275
      82 -> 88         0.11102
 This state for optimization and/or second-order correction.
 Total Energy, E(TD-HF/TD-DFT) =  -1002.63832157
 Copying the excited state density for this state as the 1-particle RhoCI density.

 The electronic state is 1-A.
 Alpha  occ. eigenvalues --  -19.22229 -19.21586 -19.20692 -10.34463 -10.32671
 Alpha  occ. eigenvalues --  -10.32217 -10.27914 -10.27512 -10.27295 -10.27207
 Alpha  occ. eigenvalues --  -10.27086 -10.26867 -10.26533 -10.26533 -10.26239
 Alpha  occ. eigenvalues --  -10.25892 -10.25284 -10.24857 -10.24798 -10.24232
 Alpha  occ. eigenvalues --  -10.24216 -10.23915 -10.22780  -1.12363  -1.09971
 Alpha  occ. eigenvalues --   -1.09284  -0.95606  -0.90882  -0.90359  -0.86560
 Alpha  occ. eigenvalues --   -0.85383  -0.82998  -0.82578  -0.78293  -0.76690
 Alpha  occ. eigenvalues --   -0.76438  -0.74995  -0.73313  -0.70585  -0.69246
 Alpha  occ. eigenvalues --   -0.67538  -0.65258  -0.63888  -0.60153  -0.59253
 Alpha  occ. eigenvalues --   -0.57830  -0.55885  -0.55108  -0.53473  -0.53035
 Alpha  occ. eigenvalues --   -0.52055  -0.51386  -0.50803  -0.50181  -0.49659
 Alpha  occ. eigenvalues --   -0.49589  -0.48765  -0.48173  -0.47798  -0.47028
 Alpha  occ. eigenvalues --   -0.46251  -0.45843  -0.45328  -0.44561  -0.44460
 Alpha  occ. eigenvalues --   -0.43781  -0.43273  -0.42846  -0.42333  -0.41981
 Alpha  occ. eigenvalues --   -0.41646  -0.41236  -0.40621  -0.39868  -0.38832
 Alpha  occ. eigenvalues --   -0.38204  -0.37079  -0.36644  -0.35977  -0.34969
 Alpha  occ. eigenvalues --   -0.33822  -0.33197  -0.30357  -0.29074  -0.26919
 Alpha virt. eigenvalues --   -0.02450   0.03757   0.05878   0.11861   0.12710
 Alpha virt. eigenvalues --    0.13463   0.14830   0.15533   0.16034   0.17766
 Alpha virt. eigenvalues --    0.18118   0.18755   0.19237   0.19811   0.19881

 Mulliken charges:
               1
     1  O   -0.477534
     2  C    0.331747
     3  C    0.186188
     4  O   -0.628637
     5  C    0.027415
     6  C    0.047144
     7  C    0.118949
     8  C   -0.536164
     9  C   -0.191064
    10  C   -0.201711
    11  C    0.143078
    12  C   -0.246942
    13  C    0.042186
    14  C    0.282037
    15  C   -0.466087
    16  O   -0.660299
    17  C   -0.468257
    18  C   -0.354275
    19  C   -0.260587
    20  C    0.081417
    21  C   -0.447330
    22  C   -0.448919
    23  C   -0.292404
    24  H    0.397892
    25  H    0.168359
    26  H    0.157115
    27  H    0.167747
    28  H    0.131800
    29  H    0.141274
    30  H    0.185002
    31  H    0.150667
    32  H    0.184833
    33  H    0.126822
    34  H    0.394368
    35  H    0.127625
    36  H    0.154010
    37  H    0.181475
    38  H    0.181167
    39  H    0.136935
    40  H    0.130183
    41  H    0.130580
    42  H    0.140162
    43  H    0.138030
    44  H    0.143188
    45  H    0.141510
    46  H    0.177537
    47  H    0.125997
    48  H    0.137540
    49  H    0.168230
 Sum of Mulliken charges =  -0.00000

 Dipole moment (field-independent basis, Debye):
    X=             -0.2052    Y=              2.4440    Z=              0.5855  Tot=              2.5216
 Quadrupole moment (field-independent basis, Debye-Ang):
   XX=           -121.9158   YY=           -139.1770   ZZ=           -137.9355
   XY=             -0.8111   XZ=              1.3861   YZ=             -3.9561

 Normal termination of Gaussian 16 at Thu Dec 28 13:19:37 2023.
