 Gaussian 16, Revision A.03,
 Gaussian 16:  ES64L-G16RevA.03 25-Dec-2016

 --------------------------------------------
 # td=(nstates=20,root=20) cam-b3lyp/6-31g(d)
 --------------------------------------------

 -----
 Title
 -----
 Symbolic Z-matrix:
 Charge =  0 Multiplicity = 1

                         Standard orientation:
 ---------------------------------------------------------------------
 Center     Atomic      Atomic             Coordinates (Angstroms)
 Number     Number       Type             X           Y           Z
 ---------------------------------------------------------------------
      1          8           0        3.968987    2.703483   -0.696782
      2          6           0        3.129373    1.712100   -0.290220
      3          6           0        3.575926    0.380541   -0.302880
      4          8           0        4.875341    0.161101   -0.746640
      5          6           0        5.783898   -0.258117    0.284773
      6          6           0        2.711984   -0.645042    0.091393
      7          8           0        3.132295   -1.960504    0.089949
      8          6           0        3.390192   -2.511215   -1.207626
      9          6           0        1.413016   -0.365569    0.545508
     10          6           0        1.009533    0.981090    0.577925
     11          8           0       -0.244019    1.356500    0.987721
     12          6           0       -0.986919    0.377570    1.726149
     13          6           0       -0.983301   -0.983189    1.028691
     14          6           0       -1.627671   -0.933355   -0.380736
     15          6           0       -3.076579   -0.495480   -0.395140
     16          6           0       -3.429927    0.850493   -0.581893
     17          6           0       -4.759487    1.263605   -0.577604
     18          6           0       -5.777265    0.324060   -0.385114
     19          8           0       -7.068946    0.778808   -0.393242
     20          6           0       -5.449838   -1.022260   -0.198598
     21          6           0       -4.112176   -1.418406   -0.205446
     22          6           0        0.474979   -1.476737    0.973763
     23          6           0        1.845605    2.016017    0.148501
     24          1           0        4.777680    2.253207   -1.004859
     25          1           0        5.476347   -1.221440    0.702240
     26          1           0        5.833429    0.488761    1.086864
     27          1           0        6.763234   -0.353412   -0.190542
     28          1           0        3.680829   -3.551325   -1.042036
     29          1           0        2.486105   -2.480530   -1.829117
     30          1           0        4.197805   -1.975365   -1.715759
     31          1           0       -0.555900    0.286388    2.734057
     32          1           0       -1.992771    0.792485    1.813815
     33          1           0       -1.572319   -1.672133    1.649234
     34          1           0       -1.034530   -0.268422   -1.018721
     35          1           0       -1.545053   -1.937006   -0.817866
     36          1           0       -2.644651    1.587988   -0.730063
     37          1           0       -5.026442    2.305344   -0.725947
     38          1           0       -7.666254    0.027718   -0.253960
     39          1           0       -6.237872   -1.760165   -0.055431
     40          1           0       -3.874012   -2.471309   -0.067783
     41          1           0        0.770380   -1.854686    1.962865
     42          1           0        0.567991   -2.330399    0.292781
     43          1           0        1.498685    3.042559    0.173512
 ---------------------------------------------------------------------

 SCF Done:  E(RCAM-B3LYP) =  -1073.51844482     A.U. after   14 cycles

 Excitation energies and oscillator strengths:

 Excited State   1:      Singlet-A      5.0903 eV  243.57 nm  f=0.0531  <S**2>=0.000
      82 -> 88        -0.32432
      83 -> 88         0.12956
      84 -> 86         0.59479

 Excited State   2:      Singlet-A      5.2341 eV  236.88 nm  f=0.0308  <S**2>=0.000
      81 -> 87        -0.31050
      82 -> 85         0.20373
      83 -> 85         0.58818

 Excited State   3:      Singlet-A      5.7969 eV  213.88 nm  f=0.0140  <S**2>=0.000
      82 -> 86         0.40531
      83 -> 86        -0.16934
      84 -> 87         0.10071
      84 -> 88         0.52318

 Excited State   4:      Singlet-A      6.0678 eV  204.33 nm  f=0.1857  <S**2>=0.000
      81 -> 85         0.33040
      82 -> 87         0.18376
      83 -> 87         0.57793

 Excited State   5:      Singlet-A      6.4780 eV  191.39 nm  f=0.4406  <S**2>=0.000
      82 -> 86         0.47762
      83 -> 86        -0.20302
      84 -> 87        -0.10214
      84 -> 88        -0.40750

 Excited State   6:      Singlet-A      6.6341 eV  186.89 nm  f=0.4984  <S**2>=0.000
      82 -> 88         0.36783
      83 -> 88        -0.15211
      84 -> 85         0.50350
      84 -> 86         0.15424
      84 -> 88         0.12204

 Excited State   7:      Singlet-A      6.6751 eV  185.74 nm  f=0.5105  <S**2>=0.000
      81 -> 85        -0.10532
      82 -> 88        -0.36911
      83 -> 88         0.16001
      84 -> 85         0.43347
      84 -> 86        -0.31591
      84 -> 89         0.11382

 Excited State   8:      Singlet-A      6.8245 eV  181.67 nm  f=0.0178  <S**2>=0.000
      79 -> 89        -0.10287
      84 -> 85        -0.12827
      84 -> 89         0.63998
      84 -> 94        -0.10828

 Excited State   9:      Singlet-A      6.9665 eV  177.97 nm  f=0.0236  <S**2>=0.000
      84 -> 87         0.66771
      84 -> 88        -0.15003

 Excited State  10:      Singlet-A      7.0557 eV  175.72 nm  f=0.0261  <S**2>=0.000
      79 -> 86        -0.15680
      80 -> 85         0.10689
      80 -> 86         0.64799

 Excited State  11:      Singlet-A      7.1040 eV  174.53 nm  f=0.0006  <S**2>=0.000
      76 -> 90         0.14247
      82 -> 90         0.22770
      83 -> 90         0.63182

 Excited State  12:      Singlet-A      7.1327 eV  173.83 nm  f=0.6327  <S**2>=0.000
      81 -> 85         0.58669
      83 -> 87        -0.32493

 Excited State  13:      Singlet-A      7.2046 eV  172.09 nm  f=0.1512  <S**2>=0.000
      81 -> 87         0.44475
      82 -> 85        -0.35756
      83 -> 85         0.36617

 Excited State  14:      Singlet-A      7.2446 eV  171.14 nm  f=0.1548  <S**2>=0.000
      81 -> 87         0.41175
      82 -> 85         0.53149
      82 -> 89         0.10819
      83 -> 86         0.10265

 Excited State  15:      Singlet-A      7.3502 eV  168.68 nm  f=0.0144  <S**2>=0.000
      81 -> 87        -0.11105
      82 -> 86         0.27264
      83 -> 86         0.62723

 Excited State  16:      Singlet-A      7.3763 eV  168.08 nm  f=0.0100  <S**2>=0.000
      82 -> 85        -0.14279
      82 -> 89         0.59249
      82 -> 94        -0.13936
      83 -> 89        -0.23740

 Excited State  17:      Singlet-A      7.5611 eV  163.98 nm  f=0.0027  <S**2>=0.000
      82 -> 87         0.65457
      82 -> 88        -0.10830
      83 -> 87        -0.18833

 Excited State  18:      Singlet-A      7.6694 eV  161.66 nm  f=0.0032  <S**2>=0.000
      79 -> 86         0.19002
      82 -> 88         0.24843
      83 -> 88         0.59756

 Excited State  19:      Singlet-A      7.6917 eV  161.19 nm  f=0.0240  <S**2>=0.000
      79 -> 85         0.11129
      79 -> 86         0.57947
      79 -> 88        -0.15721
      80 -> 86         0.14778
      80 -> 88         0.11083
      82 -> 88        -0.10898
      83 -> 88        -0.20874

 Excited State  20:      Singlet-A      7.8283 eV  158.38 nm  f=0.0040  <S**2>=0.000
      79 -> 86        -0.19453
      79 -> 88        -0.19044
      80 -> 87         0.10486
      80 -> 88         0.59689
 This state for optimization and/or second-order correction.
 Total Energy, E(TD-HF/TD-DFT) =  -1073.23076173
 Copying the excited state density for this state as the 1-particle RhoCI density.

 The electronic state is 1-A.
 Alpha  occ. eigenvalues --  -19.24919 -19.24702 -19.23953 -19.23945 -19.23877
 Alpha  occ. eigenvalues --  -10.32022 -10.31851 -10.31601 -10.31600 -10.30974
 Alpha  occ. eigenvalues --  -10.30593 -10.30480 -10.30239 -10.26667 -10.26264
 Alpha  occ. eigenvalues --  -10.26116 -10.26024 -10.25926 -10.25802 -10.25782
 Alpha  occ. eigenvalues --  -10.25644 -10.25389 -10.24584  -1.15020  -1.13469
 Alpha  occ. eigenvalues --   -1.13443  -1.12994  -1.11411  -0.93392  -0.92528
 Alpha  occ. eigenvalues --   -0.89627  -0.84153  -0.83083  -0.82369  -0.81573
 Alpha  occ. eigenvalues --   -0.78460  -0.76386  -0.74866  -0.72831  -0.69571
 Alpha  occ. eigenvalues --   -0.69136  -0.66784  -0.65807  -0.63259  -0.61060
 Alpha  occ. eigenvalues --   -0.60784  -0.59136  -0.57229  -0.56484  -0.54903
 Alpha  occ. eigenvalues --   -0.54272  -0.53952  -0.53386  -0.52630  -0.52358
 Alpha  occ. eigenvalues --   -0.50781  -0.50342  -0.50147  -0.49020  -0.48471
 Alpha  occ. eigenvalues --   -0.48140  -0.47691  -0.47233  -0.46813  -0.45629
 Alpha  occ. eigenvalues --   -0.45090  -0.44825  -0.43305  -0.42606  -0.42191
 Alpha  occ. eigenvalues --   -0.41175  -0.40964  -0.40341  -0.39288  -0.38809
 Alpha  occ. eigenvalues --   -0.37790  -0.37555  -0.36150  -0.33897  -0.33114
 Alpha  occ. eigenvalues --   -0.30287  -0.26996  -0.26457  -0.25173
 Alpha virt. eigenvalues --    0.04814   0.05707   0.06335   0.07200   0.11515
 Alpha virt. eigenvalues --    0.12042   0.13681   0.15152   0.16329   0.17321
 Alpha virt. eigenvalues --    0.17718   0.18429   0.18893   0.19967   0.20069

 Mulliken charges:
               1
     1  O   -0.657844
     2  C    0.326880
     3  C    0.238762
     4  O   -0.558005
     5  C   -0.221403
     6  C    0.242545
     7  O   -0.531022
     8  C   -0.220316
     9  C    0.045513
    10  C    0.324633
    11  O   -0.538411
    12  C   -0.048974
    13  C   -0.130258
    14  C   -0.347057
    15  C    0.143351
    16  C   -0.195998
    17  C   -0.163695
    18  C    0.339593
    19  O   -0.646348
    20  C   -0.198606
    21  C   -0.190410
    22  C   -0.322444
    23  C   -0.251186
    24  H    0.421479
    25  H    0.175090
    26  H    0.154019
    27  H    0.161814
    28  H    0.161081
    29  H    0.148538
    30  H    0.171289
    31  H    0.143468
    32  H    0.168100
    33  H    0.132348
    34  H    0.163122
    35  H    0.140539
    36  H    0.153164
    37  H    0.146906
    38  H    0.409605
    39  H    0.122136
    40  H    0.128608
    41  H    0.156283
    42  H    0.151516
    43  H    0.151593
 Sum of Mulliken charges =  -0.00000

 Dipole moment (field-independent basis, Debye):
    X=              0.4194    Y=             -3.9955    Z=              0.5452  Tot=              4.0543
 Quadrupole moment (field-independent basis, Debye-Ang):
   XX=           -108.1330   YY=           -134.1909   ZZ=           -133.9645
   XY=              5.4071   XZ=             -3.8786   YZ=              1.7604

 Normal termination of Gaussian 16 at Thu Dec 28 13:11:17 2023.
