 Gaussian 16, Revision A.03,
 Gaussian 16:  ES64L-G16RevA.03 25-Dec-2016

 --------------------------------------------
 # td=(nstates=20,root=20) cam-b3lyp/6-31g(d)
 --------------------------------------------

 -----
 Title
 -----
 Symbolic Z-matrix:
 Charge =  0 Multiplicity = 1

                         Standard orientation:
 ---------------------------------------------------------------------
 Center     Atomic      Atomic             Coordinates (Angstroms)
 Number     Number       Type             X           Y           Z
 ---------------------------------------------------------------------
      1          8           0       -2.159581    0.179328    1.929219
      2          6           0       -2.330705   -0.820067    1.037930
      3          6           0       -2.429413   -0.354658   -0.419991
      4          6           0       -1.593996   -1.296847   -1.324451
      5          6           0       -0.154186   -1.322407   -0.920525
      6          6           0        0.710978   -2.390401   -0.896725
      7          7           0        1.946065   -1.982440   -0.437050
      8          6           0        1.884233   -0.640319   -0.140653
      9          6           0        2.875125    0.211957    0.355642
     10          8           0        4.107515   -0.327305    0.608271
     11          6           0        2.532082    1.545353    0.552419
     12          6           0        1.237540    2.008738    0.256133
     13          6           0        0.222825    1.172995   -0.223604
     14          6           0       -1.130171    1.705921   -0.533061
     15          6           0       -1.239481    3.205701   -0.754288
     16          7           0       -2.242829    1.069652   -0.644786
     17          6           0        0.573630   -0.188694   -0.428933
     18          8           0       -2.445949   -1.979767    1.373375
     19          1           0       -2.139102   -0.254496    2.803526
     20          1           0       -3.482177   -0.551959   -0.670394
     21          1           0       -2.024771   -2.301778   -1.273005
     22          1           0       -1.718346   -0.939743   -2.355130
     23          1           0        0.537500   -3.423023   -1.166896
     24          1           0        2.758836   -2.564299   -0.309964
     25          1           0        4.692509    0.369770    0.944137
     26          1           0        3.276156    2.239719    0.937882
     27          1           0        1.032170    3.059875    0.424149
     28          1           0       -1.071701    3.755361    0.180776
     29          1           0       -0.503554    3.565473   -1.482660
     30          1           0       -2.246820    3.432935   -1.105848
 ---------------------------------------------------------------------

 SCF Done:  E(RCAM-B3LYP) =  -837.381690071     A.U. after   16 cycles

 Excitation energies and oscillator strengths:

 Excited State   1:      Singlet-A      4.2688 eV  290.44 nm  f=0.0737  <S**2>=0.000
      62 -> 65        -0.46430
      62 -> 66         0.11808
      62 -> 68        -0.13228
      64 -> 65         0.46757

 Excited State   2:      Singlet-A      4.4710 eV  277.31 nm  f=0.1345  <S**2>=0.000
      62 -> 65         0.44272
      64 -> 65         0.50707

 Excited State   3:      Singlet-A      4.8233 eV  257.05 nm  f=0.0202  <S**2>=0.000
      61 -> 65        -0.13277
      63 -> 65         0.54395
      64 -> 66        -0.36839
      64 -> 67        -0.12325

 Excited State   4:      Singlet-A      5.6791 eV  218.32 nm  f=0.0474  <S**2>=0.000
      59 -> 67        -0.17826
      60 -> 66         0.17924
      60 -> 67        -0.28956
      61 -> 66        -0.11848
      61 -> 67         0.21730
      62 -> 66        -0.18370
      62 -> 67         0.25395
      63 -> 65         0.17511
      64 -> 66         0.29955
      64 -> 67        -0.21366

 Excited State   5:      Singlet-A      5.8014 eV  213.71 nm  f=0.1709  <S**2>=0.000
      60 -> 65         0.10385
      61 -> 65         0.60361
      63 -> 65         0.23405
      64 -> 66         0.10961

 Excited State   6:      Singlet-A      5.8900 eV  210.50 nm  f=0.2220  <S**2>=0.000
      59 -> 67         0.11415
      60 -> 67         0.13179
      61 -> 65        -0.28480
      61 -> 66         0.12902
      61 -> 67        -0.11778
      62 -> 67        -0.10620
      63 -> 65         0.27497
      64 -> 66         0.47967

 Excited State   7:      Singlet-A      6.1957 eV  200.11 nm  f=0.0330  <S**2>=0.000
      60 -> 65        -0.12701
      63 -> 65        -0.13936
      63 -> 66         0.47242
      64 -> 67        -0.32281
      64 -> 68        -0.26282
      64 -> 69         0.13407

 Excited State   8:      Singlet-A      6.4519 eV  192.17 nm  f=0.1147  <S**2>=0.000
      59 -> 67        -0.10965
      61 -> 67         0.10022
      63 -> 66         0.30506
      63 -> 67         0.15479
      64 -> 67         0.54487
      64 -> 68        -0.11870

 Excited State   9:      Singlet-A      6.5585 eV  189.04 nm  f=0.0062  <S**2>=0.000
      60 -> 66         0.11632
      60 -> 67        -0.18700
      61 -> 66        -0.17653
      61 -> 67         0.13352
      62 -> 65         0.13244
      62 -> 66         0.49674
      62 -> 67        -0.27040
      63 -> 66        -0.13125
      64 -> 68        -0.10900

 Excited State  10:      Singlet-A      6.6269 eV  187.09 nm  f=0.0182  <S**2>=0.000
      60 -> 65        -0.14767
      60 -> 69        -0.11625
      63 -> 69        -0.10069
      64 -> 68         0.45058
      64 -> 69         0.43909

 Excited State  11:      Singlet-A      6.6937 eV  185.23 nm  f=0.0952  <S**2>=0.000
      60 -> 65         0.54304
      61 -> 65        -0.11443
      64 -> 68        -0.15813
      64 -> 69         0.34062

 Excited State  12:      Singlet-A      6.7883 eV  182.64 nm  f=0.1284  <S**2>=0.000
      60 -> 65         0.33234
      61 -> 66         0.10300
      62 -> 66         0.15920
      63 -> 66         0.33314
      64 -> 68         0.31379
      64 -> 69        -0.29227

 Excited State  13:      Singlet-A      7.0499 eV  175.87 nm  f=0.0136  <S**2>=0.000
      60 -> 66        -0.12985
      61 -> 66        -0.15247
      61 -> 67        -0.12939
      62 -> 65         0.15722
      62 -> 66         0.25140
      62 -> 67         0.48636
      62 -> 68        -0.18690
      62 -> 69         0.10417
      63 -> 67        -0.14205

 Excited State  14:      Singlet-A      7.0785 eV  175.16 nm  f=0.0930  <S**2>=0.000
      60 -> 66         0.18273
      61 -> 66         0.49571
      62 -> 67         0.13700
      62 -> 68        -0.15265
      63 -> 67         0.14742
      63 -> 68         0.19227
      63 -> 69        -0.12817
      63 -> 70        -0.11678

 Excited State  15:      Singlet-A      7.3518 eV  168.65 nm  f=0.0028  <S**2>=0.000
      59 -> 65         0.14509
      61 -> 66         0.12167
      62 -> 65        -0.11151
      62 -> 66         0.26462
      62 -> 67         0.23465
      62 -> 68         0.44341
      62 -> 69        -0.27052

 Excited State  16:      Singlet-A      7.3867 eV  167.85 nm  f=0.0748  <S**2>=0.000
      59 -> 65         0.10498
      61 -> 66        -0.16285
      62 -> 67         0.10620
      63 -> 67         0.52310
      63 -> 68         0.22158
      64 -> 68         0.13654
      64 -> 72         0.15707

 Excited State  17:      Singlet-A      7.4397 eV  166.65 nm  f=0.0471  <S**2>=0.000
      57 -> 65         0.11430
      59 -> 65         0.14121
      63 -> 67        -0.15243
      63 -> 69         0.12624
      64 -> 70         0.56063
      64 -> 71        -0.22280
      64 -> 72         0.13774

 Excited State  18:      Singlet-A      7.4896 eV  165.54 nm  f=0.0042  <S**2>=0.000
      57 -> 65        -0.12057
      59 -> 65        -0.14252
      63 -> 67        -0.18100
      63 -> 68         0.17003
      63 -> 69         0.21403
      64 -> 70        -0.20957
      64 -> 72         0.48946

 Excited State  19:      Singlet-A      7.5651 eV  163.89 nm  f=0.0197  <S**2>=0.000
      55 -> 65         0.12146
      56 -> 65        -0.15149
      57 -> 65         0.14387
      58 -> 65        -0.15312
      59 -> 65         0.45075
      63 -> 67        -0.21860
      63 -> 68         0.23416
      63 -> 69        -0.11990
      64 -> 70        -0.19347

 Excited State  20:      Singlet-A      7.6065 eV  163.00 nm  f=0.0067  <S**2>=0.000
      63 -> 68         0.33557
      63 -> 69         0.39350
      63 -> 72         0.17577
      64 -> 72        -0.34270
 This state for optimization and/or second-order correction.
 Total Energy, E(TD-HF/TD-DFT) =  -837.102155998
 Copying the excited state density for this state as the 1-particle RhoCI density.

 The electronic state is 1-A.
 Alpha  occ. eigenvalues --  -19.26439 -19.26112 -19.20094 -14.45382 -14.37745
 Alpha  occ. eigenvalues --  -10.38819 -10.33333 -10.30339 -10.29414 -10.29337
 Alpha  occ. eigenvalues --  -10.29224 -10.26458 -10.26330 -10.26317 -10.26152
 Alpha  occ. eigenvalues --  -10.26096 -10.25238 -10.24179  -1.17844  -1.15112
 Alpha  occ. eigenvalues --   -1.08317  -1.06257  -0.99147  -0.92458  -0.88481
 Alpha  occ. eigenvalues --   -0.85647  -0.82078  -0.79582  -0.78397  -0.74457
 Alpha  occ. eigenvalues --   -0.71131  -0.68533  -0.67415  -0.64246  -0.63803
 Alpha  occ. eigenvalues --   -0.59762  -0.58700  -0.55792  -0.54780  -0.54617
 Alpha  occ. eigenvalues --   -0.54010  -0.52321  -0.51019  -0.49968  -0.49072
 Alpha  occ. eigenvalues --   -0.47782  -0.47710  -0.46942  -0.46457  -0.45564
 Alpha  occ. eigenvalues --   -0.45213  -0.43884  -0.43427  -0.42959  -0.41102
 Alpha  occ. eigenvalues --   -0.40345  -0.39461  -0.36955  -0.35991  -0.32718
 Alpha  occ. eigenvalues --   -0.30533  -0.28341  -0.27478  -0.24408
 Alpha virt. eigenvalues --    0.01106   0.05657   0.07960   0.10262   0.10556
 Alpha virt. eigenvalues --    0.13022   0.13618   0.14082   0.15270   0.17383
 Alpha virt. eigenvalues --    0.18537   0.19887   0.21430   0.22001   0.23190

 Mulliken charges:
               1
     1  O   -0.563560
     2  C    0.592581
     3  C   -0.100709
     4  C   -0.335143
     5  C    0.064352
     6  C   -0.000214
     7  N   -0.691006
     8  C    0.286926
     9  C    0.319724
    10  O   -0.661829
    11  C   -0.217671
    12  C   -0.214404
    13  C    0.100661
    14  C    0.252134
    15  C   -0.510603
    16  N   -0.431090
    17  C   -0.014278
    18  O   -0.471113
    19  H    0.412178
    20  H    0.179354
    21  H    0.164103
    22  H    0.164665
    23  H    0.161370
    24  H    0.344768
    25  H    0.418199
    26  H    0.121075
    27  H    0.134998
    28  H    0.160168
    29  H    0.155550
    30  H    0.178812
 Sum of Mulliken charges =  -0.00000

 Dipole moment (field-independent basis, Debye):
    X=              4.3245    Y=              0.1239    Z=              0.5846  Tot=              4.3656
 Quadrupole moment (field-independent basis, Debye-Ang):
   XX=            -93.5946   YY=            -95.9108   ZZ=            -98.5795
   XY=              0.4769   XZ=              3.8345   YZ=              6.8989

 Normal termination of Gaussian 16 at Thu Dec 28 13:28:40 2023.
