 Gaussian 16, Revision A.03,
 Gaussian 16:  ES64L-G16RevA.03 25-Dec-2016

 --------------------------------------------
 # td=(nstates=20,root=20) cam-b3lyp/6-31g(d)
 --------------------------------------------

 -----
 Title
 -----
 Symbolic Z-matrix:
 Charge =  0 Multiplicity = 1

                         Standard orientation:
 ---------------------------------------------------------------------
 Center     Atomic      Atomic             Coordinates (Angstroms)
 Number     Number       Type             X           Y           Z
 ---------------------------------------------------------------------
      1          8           0       -4.396573    2.850248    0.008240
      2          6           0       -3.391107    1.942356    0.069870
      3          6           0       -2.046710    2.298056    0.240030
      4          6           0       -1.072301    1.314320    0.291955
      5          6           0       -1.378319   -0.051498    0.172647
      6          6           0       -0.270027   -1.027871    0.228224
      7          7           0        0.899810   -0.677178    0.618224
      8          6           0        1.862509   -1.772756    0.624256
      9          6           0        3.269684   -1.315665    0.210583
     10          7           0        3.489045    0.015689    0.341658
     11          6           0        4.737268    0.617880   -0.051818
     12          6           0        4.554137    2.113493   -0.194169
     13          8           0        5.704080    2.714712   -0.563013
     14          8           0        3.519328    2.713406    0.001240
     15          8           0        4.119598   -2.113383   -0.171865
     16          6           0        1.362154   -2.931185   -0.266381
     17         16           0       -0.466224   -2.745444   -0.286056
     18          6           0       -2.733477   -0.409559    0.009041
     19          8           0       -3.057174   -1.718055   -0.081024
     20          6           0       -3.719966    0.588694   -0.042417
     21         17           0       -5.397243    0.110667   -0.246293
     22          1           0       -4.022006    3.740010    0.104827
     23          1           0       -1.774459    3.347327    0.325751
     24          1           0       -0.032334    1.590138    0.420516
     25          1           0        1.951343   -2.125261    1.664939
     26          1           0        2.700305    0.619794    0.546107
     27          1           0        5.536794    0.430960    0.678856
     28          1           0        5.093384    0.197294   -1.000742
     29          1           0        5.510068    3.668718   -0.629260
     30          1           0        1.632650   -3.907631    0.136414
     31          1           0        1.755624   -2.854131   -1.283330
     32          1           0       -4.017782   -1.804061   -0.218919
 ---------------------------------------------------------------------

 SCF Done:  E(RCAM-B3LYP) =  -1807.49743221     A.U. after   15 cycles

 Excitation energies and oscillator strengths:

 Excited State   1:      Singlet-A      4.7687 eV  260.00 nm  f=0.2150  <S**2>=0.000
      83 -> 86         0.25407
      83 -> 87         0.12009
      84 -> 86        -0.13307
      84 -> 87         0.14065
      85 -> 86         0.58380
      85 -> 87        -0.15268

 Excited State   2:      Singlet-A      4.9907 eV  248.43 nm  f=0.0169  <S**2>=0.000
      83 -> 86        -0.31396
      84 -> 86         0.45581
      84 -> 87        -0.10071
      85 -> 86         0.32370
      85 -> 87         0.21009

 Excited State   3:      Singlet-A      5.2324 eV  236.96 nm  f=0.1282  <S**2>=0.000
      80 -> 86         0.44237
      80 -> 92         0.13870
      83 -> 86         0.28752
      84 -> 86         0.36677
      84 -> 87         0.14029
      85 -> 87        -0.10001

 Excited State   4:      Singlet-A      5.2981 eV  234.02 nm  f=0.1299  <S**2>=0.000
      80 -> 86         0.47341
      80 -> 92         0.13977
      83 -> 86        -0.26001
      84 -> 86        -0.31402
      84 -> 87        -0.15139
      85 -> 86         0.12347
      85 -> 87         0.13561

 Excited State   5:      Singlet-A      5.6328 eV  220.11 nm  f=0.0001  <S**2>=0.000
      81 -> 91         0.10522
      84 -> 89        -0.12648
      84 -> 90         0.35132
      84 -> 91         0.23734
      85 -> 89        -0.15470
      85 -> 90         0.42483
      85 -> 91         0.22125

 Excited State   6:      Singlet-A      5.7434 eV  215.87 nm  f=0.0011  <S**2>=0.000
      81 -> 90        -0.27594
      81 -> 91         0.33274
      82 -> 90        -0.24193
      82 -> 91         0.29444
      85 -> 91        -0.27203

 Excited State   7:      Singlet-A      6.0638 eV  204.47 nm  f=0.0013  <S**2>=0.000
      79 -> 88         0.67694
      82 -> 88         0.10969

 Excited State   8:      Singlet-A      6.0785 eV  203.97 nm  f=0.0566  <S**2>=0.000
      83 -> 86         0.18738
      83 -> 89         0.56517
      83 -> 90         0.16065
      85 -> 87         0.25204
      85 -> 89        -0.11673

 Excited State   9:      Singlet-A      6.1103 eV  202.91 nm  f=0.2172  <S**2>=0.000
      83 -> 86         0.35106
      83 -> 87        -0.12762
      83 -> 89        -0.28896
      84 -> 87        -0.13443
      85 -> 87         0.45992

 Excited State  10:      Singlet-A      6.3448 eV  195.41 nm  f=0.2428  <S**2>=0.000
      81 -> 86         0.30371
      82 -> 86         0.24169
      83 -> 87         0.49854
      85 -> 87         0.18340

 Excited State  11:      Singlet-A      6.4502 eV  192.22 nm  f=0.0026  <S**2>=0.000
      82 -> 86         0.14881
      83 -> 89         0.19193
      84 -> 89        -0.40169
      85 -> 89         0.47114

 Excited State  12:      Singlet-A      6.4758 eV  191.46 nm  f=0.0645  <S**2>=0.000
      81 -> 86         0.10727
      82 -> 86         0.55519
      82 -> 92         0.10853
      83 -> 87        -0.25764
      84 -> 87        -0.14677
      84 -> 89         0.13434
      85 -> 87        -0.12005
      85 -> 89        -0.14651

 Excited State  13:      Singlet-A      6.5364 eV  189.68 nm  f=0.0287  <S**2>=0.000
      81 -> 86        -0.35538
      82 -> 86         0.24537
      83 -> 86        -0.11577
      84 -> 87         0.47437
      85 -> 87         0.20958

 Excited State  14:      Singlet-A      6.5625 eV  188.93 nm  f=0.1679  <S**2>=0.000
      80 -> 86         0.10039
      81 -> 86         0.45795
      82 -> 86        -0.15069
      83 -> 87        -0.30027
      84 -> 87         0.33451

 Excited State  15:      Singlet-A      6.8365 eV  181.36 nm  f=0.0041  <S**2>=0.000
      81 -> 88        -0.45015
      82 -> 88         0.50768
      85 -> 88         0.15705

 Excited State  16:      Singlet-A      7.0983 eV  174.67 nm  f=0.0209  <S**2>=0.000
      84 -> 90        -0.31224
      84 -> 91        -0.24047
      85 -> 88        -0.11880
      85 -> 90         0.38614
      85 -> 92         0.30711

 Excited State  17:      Singlet-A      7.1348 eV  173.77 nm  f=0.0023  <S**2>=0.000
      82 -> 88        -0.17241
      82 -> 91         0.11324
      84 -> 90        -0.15213
      85 -> 88         0.52281
      85 -> 91         0.29457

 Excited State  18:      Singlet-A      7.2236 eV  171.64 nm  f=0.0116  <S**2>=0.000
      82 -> 88        -0.10469
      84 -> 90         0.24383
      85 -> 88         0.20401
      85 -> 91        -0.38567
      85 -> 92         0.40975

 Excited State  19:      Singlet-A      7.2429 eV  171.18 nm  f=0.0042  <S**2>=0.000
      81 -> 88         0.10639
      82 -> 88         0.16935
      84 -> 91         0.22569
      85 -> 88        -0.27807
      85 -> 90        -0.28628
      85 -> 91         0.24057
      85 -> 92         0.33745

 Excited State  20:      Singlet-A      7.3341 eV  169.05 nm  f=0.0006  <S**2>=0.000
      78 -> 93         0.15572
      81 -> 93         0.10082
      83 -> 93        -0.10627
      84 -> 92         0.20372
      84 -> 93        -0.39373
      85 -> 93         0.46494
 This state for optimization and/or second-order correction.
 Total Energy, E(TD-HF/TD-DFT) =  -1807.22790801
 Copying the excited state density for this state as the 1-particle RhoCI density.

 The electronic state is 1-A.
 Alpha  occ. eigenvalues -- -101.64033 -88.95509 -19.28800 -19.27777 -19.27303
 Alpha  occ. eigenvalues --  -19.23407 -19.18336 -14.42955 -14.40350 -10.41882
 Alpha  occ. eigenvalues --  -10.36101 -10.35970 -10.35843 -10.34391 -10.33275
 Alpha  occ. eigenvalues --  -10.31743 -10.30622 -10.28870 -10.28811 -10.28616
 Alpha  occ. eigenvalues --  -10.27936  -9.55664  -8.01690  -7.32175  -7.31195
 Alpha  occ. eigenvalues --   -7.31153  -5.98288  -5.97894  -5.97269  -1.20705
 Alpha  occ. eigenvalues --   -1.17046  -1.16722  -1.11694  -1.11093  -1.03335
 Alpha  occ. eigenvalues --   -1.00404  -0.97879  -0.93731  -0.87106  -0.85769
 Alpha  occ. eigenvalues --   -0.84201  -0.82775  -0.80709  -0.73091  -0.72335
 Alpha  occ. eigenvalues --   -0.70585  -0.68152  -0.66371  -0.65506  -0.63381
 Alpha  occ. eigenvalues --   -0.60310  -0.59396  -0.57656  -0.57340  -0.56738
 Alpha  occ. eigenvalues --   -0.55762  -0.55427  -0.53877  -0.52603  -0.52165
 Alpha  occ. eigenvalues --   -0.51241  -0.50517  -0.49786  -0.48691  -0.48276
 Alpha  occ. eigenvalues --   -0.47848  -0.46906  -0.46259  -0.45651  -0.44067
 Alpha  occ. eigenvalues --   -0.43830  -0.43354  -0.42212  -0.41547  -0.40197
 Alpha  occ. eigenvalues --   -0.39815  -0.38808  -0.38282  -0.36435  -0.33196
 Alpha  occ. eigenvalues --   -0.31639  -0.31493  -0.29887  -0.29128  -0.27517
 Alpha virt. eigenvalues --   -0.00095   0.03733   0.04906   0.06750   0.07664
 Alpha virt. eigenvalues --    0.08437   0.09214   0.10073   0.11200   0.13652
 Alpha virt. eigenvalues --    0.14539   0.15448   0.16619   0.17361   0.18696

 Mulliken charges:
               1
     1  O   -0.623162
     2  C    0.367959
     3  C   -0.200575
     4  C   -0.172815
     5  C    0.085224
     6  C    0.078533
     7  N   -0.457081
     8  C   -0.047911
     9  C    0.587080
    10  N   -0.623597
    11  C   -0.175512
    12  C    0.556677
    13  O   -0.566671
    14  O   -0.457672
    15  O   -0.524082
    16  C   -0.453952
    17  S    0.167372
    18  C    0.313158
    19  O   -0.634603
    20  C   -0.201035
    21  Cl   0.003515
    22  H    0.423710
    23  H    0.140356
    24  H    0.185980
    25  H    0.187794
    26  H    0.378832
    27  H    0.200169
    28  H    0.211960
    29  H    0.423116
    30  H    0.194699
    31  H    0.198505
    32  H    0.434028
 Sum of Mulliken charges =  -0.00000

 Dipole moment (field-independent basis, Debye):
    X=             -0.2439    Y=              4.5689    Z=              0.2062  Tot=              4.5800
 Quadrupole moment (field-independent basis, Debye-Ang):
   XX=           -132.6882   YY=           -116.6399   ZZ=           -133.1423
   XY=             12.0988   XZ=              0.3396   YZ=             -1.8684

 Normal termination of Gaussian 16 at Thu Dec 28 13:14:22 2023.
