 Gaussian 16, Revision A.03,
 Gaussian 16:  ES64L-G16RevA.03 25-Dec-2016

 --------------------------------------------
 # td=(nstates=20,root=20) cam-b3lyp/6-31g(d)
 --------------------------------------------

 -----
 Title
 -----
 Symbolic Z-matrix:
 Charge =  0 Multiplicity = 1

                         Standard orientation:
 ---------------------------------------------------------------------
 Center     Atomic      Atomic             Coordinates (Angstroms)
 Number     Number       Type             X           Y           Z
 ---------------------------------------------------------------------
      1          8           0       -4.121363    1.186332    0.487385
      2          6           0       -3.101368    0.572014    0.226602
      3          6           0       -1.769218    1.377634    0.051106
      4          8           0       -1.864300    2.590792    0.031026
      5          6           0       -3.048684   -0.900017    0.075830
      6          8           0       -4.150684   -1.680643    0.195479
      7          6           0       -5.430151   -1.204755   -0.251053
      8          6           0       -1.843487   -1.504618   -0.070064
      9          6           0       -0.571225   -0.802705   -0.124007
     10          6           0       -0.509933    0.615746   -0.069459
     11          6           0        0.753175    1.238826   -0.131475
     12          8           0        0.805489    2.590971   -0.057514
     13          6           0        1.935671    0.476840   -0.266416
     14          6           0        3.283728    1.172268   -0.316161
     15          8           0        4.365811    0.325388   -0.647078
     16          6           0        4.357002   -0.948214    0.013719
     17          6           0        4.475290   -0.829243    1.535488
     18          6           0        3.122785   -1.729919   -0.456129
     19          6           0        1.855060   -0.915994   -0.312502
     20          6           0        0.605260   -1.543189   -0.239745
     21          1           0       -5.355360   -0.731850   -1.236212
     22          1           0       -5.861458   -0.496843    0.456996
     23          1           0       -6.051848   -2.099807   -0.324891
     24          1           0       -1.822814   -2.589332   -0.134849
     25          1           0        1.726268    2.891444   -0.087797
     26          1           0        3.474259    1.681881    0.647787
     27          1           0        3.290206    1.948672   -1.094879
     28          1           0        5.257984   -1.438895   -0.368099
     29          1           0        5.322922   -0.187972    1.798238
     30          1           0        3.569559   -0.414745    1.991245
     31          1           0        4.644715   -1.817772    1.976705
     32          1           0        3.261986   -1.992516   -1.513541
     33          1           0        3.029298   -2.674552    0.093595
     34          1           0        0.551224   -2.628462   -0.273080
 ---------------------------------------------------------------------

 SCF Done:  E(RCAM-B3LYP) =  -955.646747760     A.U. after   18 cycles

 Excitation energies and oscillator strengths:

 Excited State   1:      Singlet-A      2.4256 eV  511.14 nm  f=0.0014  <S**2>=0.000
      70 -> 73         0.65634
      70 -> 75        -0.12261
      71 -> 73         0.10324
      72 -> 73         0.13475

 Excited State   2:      Singlet-A      3.0428 eV  407.47 nm  f=0.1237  <S**2>=0.000
      70 -> 73        -0.15417
      71 -> 73         0.15873
      72 -> 73         0.66412

 Excited State   3:      Singlet-A      3.6430 eV  340.34 nm  f=0.0007  <S**2>=0.000
      67 -> 73         0.58062
      67 -> 75        -0.13043
      68 -> 73        -0.26642
      70 -> 74         0.16233

 Excited State   4:      Singlet-A      3.8040 eV  325.93 nm  f=0.0917  <S**2>=0.000
      71 -> 73         0.65036
      72 -> 73        -0.16540
      72 -> 74        -0.16075

 Excited State   5:      Singlet-A      5.1602 eV  240.27 nm  f=0.0602  <S**2>=0.000
      65 -> 73         0.13325
      67 -> 73         0.24940
      68 -> 73         0.59035
      69 -> 73         0.17070
      71 -> 74        -0.12935

 Excited State   6:      Singlet-A      5.2637 eV  235.55 nm  f=0.4634  <S**2>=0.000
      65 -> 73        -0.11837
      71 -> 73         0.15933
      71 -> 74         0.12328
      71 -> 75        -0.14255
      72 -> 74         0.62059

 Excited State   7:      Singlet-A      5.4888 eV  225.89 nm  f=0.0097  <S**2>=0.000
      67 -> 73        -0.11456
      68 -> 73         0.12709
      69 -> 73        -0.27480
      70 -> 73        -0.10582
      70 -> 74         0.55174
      70 -> 76        -0.16638

 Excited State   8:      Singlet-A      5.5200 eV  224.61 nm  f=0.0127  <S**2>=0.000
      67 -> 73        -0.11447
      68 -> 73        -0.11491
      69 -> 73         0.57908
      69 -> 75         0.12101
      70 -> 74         0.27241

 Excited State   9:      Singlet-A      5.7067 eV  217.26 nm  f=0.0128  <S**2>=0.000
      68 -> 73         0.13145
      71 -> 74         0.47958
      72 -> 74        -0.18132
      72 -> 75         0.43812

 Excited State  10:      Singlet-A      6.0400 eV  205.27 nm  f=0.0596  <S**2>=0.000
      64 -> 73         0.20275
      65 -> 73         0.50984
      66 -> 73         0.12321
      67 -> 73        -0.19388
      68 -> 74        -0.10001
      70 -> 75         0.22986

 Excited State  11:      Singlet-A      6.0575 eV  204.68 nm  f=0.4914  <S**2>=0.000
      70 -> 75         0.15343
      71 -> 74        -0.45081
      72 -> 75         0.47606

 Excited State  12:      Singlet-A      6.2598 eV  198.07 nm  f=0.0453  <S**2>=0.000
      65 -> 73        -0.12712
      66 -> 73        -0.18157
      68 -> 74         0.14346
      69 -> 73        -0.10929
      70 -> 73         0.11126
      70 -> 75         0.50467
      71 -> 74         0.13853
      71 -> 75         0.24590
      72 -> 75        -0.10316

 Excited State  13:      Singlet-A      6.4415 eV  192.48 nm  f=0.1252  <S**2>=0.000
      62 -> 73         0.11219
      65 -> 73         0.13278
      66 -> 73         0.13926
      68 -> 74         0.13954
      70 -> 75        -0.20181
      71 -> 75         0.51549
      72 -> 74         0.15762
      72 -> 75         0.12466
      72 -> 76        -0.21925

 Excited State  14:      Singlet-A      6.6321 eV  186.95 nm  f=0.0089  <S**2>=0.000
      60 -> 73        -0.12333
      63 -> 73        -0.10335
      65 -> 73        -0.25445
      66 -> 73         0.53476
      66 -> 75         0.11673
      70 -> 75         0.21056

 Excited State  15:      Singlet-A      6.7722 eV  183.08 nm  f=0.0491  <S**2>=0.000
      57 -> 73        -0.11121
      58 -> 73        -0.16502
      59 -> 73        -0.10814
      60 -> 73         0.10592
      62 -> 73         0.10325
      63 -> 73        -0.15432
      64 -> 73         0.51304
      65 -> 73        -0.20140
      66 -> 73        -0.11963
      68 -> 75         0.10982

 Excited State  16:      Singlet-A      6.8944 eV  179.83 nm  f=0.0448  <S**2>=0.000
      62 -> 73        -0.11397
      66 -> 73        -0.12039
      67 -> 74         0.40308
      67 -> 76        -0.14934
      68 -> 74        -0.37761
      71 -> 75         0.21316
      72 -> 76         0.18540

 Excited State  17:      Singlet-A      7.0134 eV  176.78 nm  f=0.0148  <S**2>=0.000
      58 -> 73         0.26745
      63 -> 73         0.24648
      64 -> 73         0.15740
      66 -> 73         0.11077
      69 -> 74         0.34215
      70 -> 74         0.12454
      70 -> 76         0.18080
      72 -> 76         0.23981

 Excited State  18:      Singlet-A      7.0199 eV  176.62 nm  f=0.0195  <S**2>=0.000
      62 -> 73         0.12813
      64 -> 73        -0.12243
      67 -> 74         0.18342
      69 -> 74         0.46454
      70 -> 76         0.14488
      71 -> 75        -0.18759
      72 -> 76        -0.30606

 Excited State  19:      Singlet-A      7.0985 eV  174.66 nm  f=0.0339  <S**2>=0.000
      58 -> 73        -0.24411
      62 -> 73        -0.18559
      63 -> 73        -0.25008
      64 -> 73        -0.23389
      67 -> 74        -0.24125
      67 -> 75        -0.10672
      69 -> 74         0.20688
      71 -> 75         0.13380
      72 -> 76         0.27119

 Excited State  20:      Singlet-A      7.1522 eV  173.35 nm  f=0.0025  <S**2>=0.000
      68 -> 77        -0.18245
      71 -> 77        -0.36055
      72 -> 76        -0.10144
      72 -> 77         0.51991
 This state for optimization and/or second-order correction.
 Total Energy, E(TD-HF/TD-DFT) =  -955.383910313
 Copying the excited state density for this state as the 1-particle RhoCI density.

 The electronic state is 1-A.
 Alpha  occ. eigenvalues --  -19.26976 -19.25239 -19.23465 -19.22886 -19.21625
 Alpha  occ. eigenvalues --  -10.36015 -10.35472 -10.35330 -10.33582 -10.33302
 Alpha  occ. eigenvalues --  -10.32588 -10.30664 -10.29816 -10.29692 -10.28586
 Alpha  occ. eigenvalues --  -10.28319 -10.28036 -10.27776 -10.27407 -10.26249
 Alpha  occ. eigenvalues --   -1.16384  -1.15338  -1.13262  -1.12955  -1.10739
 Alpha  occ. eigenvalues --   -0.96783  -0.91590  -0.88849  -0.85896  -0.84440
 Alpha  occ. eigenvalues --   -0.80229  -0.79060  -0.76096  -0.75362  -0.71350
 Alpha  occ. eigenvalues --   -0.69586  -0.66964  -0.64407  -0.63304  -0.59495
 Alpha  occ. eigenvalues --   -0.58949  -0.57707  -0.57499  -0.55177  -0.54852
 Alpha  occ. eigenvalues --   -0.53996  -0.52933  -0.51925  -0.51175  -0.50853
 Alpha  occ. eigenvalues --   -0.49897  -0.49406  -0.49078  -0.48612  -0.48046
 Alpha  occ. eigenvalues --   -0.47078  -0.45954  -0.44995  -0.44607  -0.43822
 Alpha  occ. eigenvalues --   -0.43338  -0.42875  -0.42014  -0.41400  -0.39151
 Alpha  occ. eigenvalues --   -0.37772  -0.34940  -0.33814  -0.33328  -0.29717
 Alpha  occ. eigenvalues --   -0.29612  -0.26753
 Alpha virt. eigenvalues --   -0.06111   0.01708   0.04551   0.09298   0.09656
 Alpha virt. eigenvalues --    0.12521   0.14382   0.14567   0.15826   0.16942
 Alpha virt. eigenvalues --    0.17339   0.18521   0.18954   0.19509   0.20191

 Mulliken charges:
               1
     1  O   -0.428943
     2  C    0.347859
     3  C    0.319403
     4  O   -0.412401
     5  C    0.334332
     6  O   -0.515388
     7  C   -0.215219
     8  C   -0.263666
     9  C    0.146246
    10  C    0.015814
    11  C    0.232332
    12  O   -0.606719
    13  C    0.041270
    14  C   -0.120594
    15  O   -0.489369
    16  C    0.115111
    17  C   -0.470078
    18  C   -0.344227
    19  C    0.112473
    20  C   -0.292895
    21  H    0.154315
    22  H    0.188955
    23  H    0.162245
    24  H    0.158873
    25  H    0.427899
    26  H    0.147056
    27  H    0.164300
    28  H    0.147897
    29  H    0.165110
    30  H    0.156684
    31  H    0.154300
    32  H    0.176186
    33  H    0.153623
    34  H    0.137214
 Sum of Mulliken charges =  -0.00000

 Dipole moment (field-independent basis, Debye):
    X=              3.8572    Y=             -3.9003    Z=             -0.3390  Tot=              5.4959
 Quadrupole moment (field-independent basis, Debye-Ang):
   XX=           -109.8136   YY=           -116.5123   ZZ=           -114.3852
   XY=             10.0503   XZ=              8.6815   YZ=              0.3007

 Normal termination of Gaussian 16 at Thu Dec 28 13:30:34 2023.
