 Gaussian 16, Revision A.03,
 Gaussian 16:  ES64L-G16RevA.03 25-Dec-2016

 --------------------
 # opt b3lyp/6-31g(d)
 --------------------

 -------------
 molecule_17_1
 -------------
 Symbolic Z-matrix:
 Charge =  0 Multiplicity = 1

 SCF Done:  E(RB3LYP) =  -1807.85654646     A.U. after   16 cycles
 SCF Done:  E(RB3LYP) =  -1807.89365713     A.U. after   13 cycles
 SCF Done:  E(RB3LYP) =  -1807.90642551     A.U. after   13 cycles
 SCF Done:  E(RB3LYP) =  -1807.90836775     A.U. after   13 cycles
 SCF Done:  E(RB3LYP) =  -1807.91054069     A.U. after   14 cycles
 SCF Done:  E(RB3LYP) =  -1807.91178892     A.U. after   12 cycles
 SCF Done:  E(RB3LYP) =  -1807.91249873     A.U. after   12 cycles
 SCF Done:  E(RB3LYP) =  -1807.91361988     A.U. after   14 cycles
 SCF Done:  E(RB3LYP) =  -1807.91481289     A.U. after   13 cycles
 SCF Done:  E(RB3LYP) =  -1807.91668386     A.U. after   13 cycles
 SCF Done:  E(RB3LYP) =  -1807.92145965     A.U. after   12 cycles
 SCF Done:  E(RB3LYP) =  -1807.92152807     A.U. after   12 cycles
 SCF Done:  E(RB3LYP) =  -1807.92158603     A.U. after   11 cycles
 SCF Done:  E(RB3LYP) =  -1807.92161377     A.U. after   11 cycles
 SCF Done:  E(RB3LYP) =  -1807.92161893     A.U. after   10 cycles
 SCF Done:  E(RB3LYP) =  -1807.92162675     A.U. after   11 cycles
 SCF Done:  E(RB3LYP) =  -1807.92163032     A.U. after   10 cycles
 SCF Done:  E(RB3LYP) =  -1807.92163151     A.U. after    9 cycles
 SCF Done:  E(RB3LYP) =  -1807.92163258     A.U. after   10 cycles
 SCF Done:  E(RB3LYP) =  -1807.92163277     A.U. after    8 cycles
 Optimization completed.
    -- Stationary point found.

                         Standard orientation:
 ---------------------------------------------------------------------
 Center     Atomic      Atomic             Coordinates (Angstroms)
 Number     Number       Type             X           Y           Z
 ---------------------------------------------------------------------
      1          8           0        4.396573    2.850248   -0.008240
      2          6           0        3.391107    1.942356   -0.069870
      3          6           0        2.046710    2.298056   -0.240030
      4          6           0        1.072301    1.314320   -0.291955
      5          6           0        1.378319   -0.051498   -0.172647
      6          6           0        0.270027   -1.027871   -0.228224
      7          7           0       -0.899810   -0.677178   -0.618224
      8          6           0       -1.862509   -1.772756   -0.624256
      9          6           0       -3.269684   -1.315665   -0.210583
     10          7           0       -3.489045    0.015689   -0.341658
     11          6           0       -4.737268    0.617880    0.051818
     12          6           0       -4.554137    2.113493    0.194169
     13          8           0       -5.704080    2.714712    0.563013
     14          8           0       -3.519328    2.713406   -0.001240
     15          8           0       -4.119598   -2.113383    0.171865
     16          6           0       -1.362154   -2.931185    0.266381
     17         16           0        0.466224   -2.745444    0.286056
     18          6           0        2.733477   -0.409559   -0.009041
     19          8           0        3.057174   -1.718055    0.081024
     20          6           0        3.719966    0.588694    0.042417
     21         17           0        5.397243    0.110667    0.246293
     22          1           0        4.022006    3.740010   -0.104827
     23          1           0        1.774459    3.347327   -0.325751
     24          1           0        0.032334    1.590138   -0.420516
     25          1           0       -1.951343   -2.125261   -1.664939
     26          1           0       -2.700305    0.619794   -0.546107
     27          1           0       -5.536794    0.430960   -0.678856
     28          1           0       -5.093384    0.197294    1.000742
     29          1           0       -5.510068    3.668718    0.629260
     30          1           0       -1.632650   -3.907631   -0.136414
     31          1           0       -1.755624   -2.854131    1.283330
     32          1           0        4.017782   -1.804061    0.218919
 ---------------------------------------------------------------------

 The electronic state is 1-A.
 Alpha  occ. eigenvalues -- -101.56931 -88.88225 -19.21589 -19.20606 -19.20080
 Alpha  occ. eigenvalues --  -19.16122 -19.11094 -14.35782 -14.32845 -10.34211
 Alpha  occ. eigenvalues --  -10.28398 -10.28295 -10.28201 -10.26566 -10.25838
 Alpha  occ. eigenvalues --  -10.24488 -10.23228 -10.21519 -10.21450 -10.21034
 Alpha  occ. eigenvalues --  -10.20608  -9.48510  -7.94333  -7.24906  -7.23944
 Alpha  occ. eigenvalues --   -7.23907  -5.90819  -5.90449  -5.89847  -1.12603
 Alpha  occ. eigenvalues --   -1.09030  -1.08718  -1.03767  -1.03028  -0.94920
 Alpha  occ. eigenvalues --   -0.92390  -0.89632  -0.85463  -0.78952  -0.77593
 Alpha  occ. eigenvalues --   -0.76287  -0.74857  -0.72808  -0.65619  -0.64808
 Alpha  occ. eigenvalues --   -0.63276  -0.60774  -0.59195  -0.58326  -0.56155
 Alpha  occ. eigenvalues --   -0.53420  -0.52247  -0.50560  -0.50340  -0.49589
 Alpha  occ. eigenvalues --   -0.48815  -0.48379  -0.47031  -0.45399  -0.45270
 Alpha  occ. eigenvalues --   -0.44755  -0.43818  -0.42891  -0.42119  -0.41285
 Alpha  occ. eigenvalues --   -0.41145  -0.40294  -0.39721  -0.39090  -0.37603
 Alpha  occ. eigenvalues --   -0.37366  -0.37025  -0.35784  -0.35025  -0.33830
 Alpha  occ. eigenvalues --   -0.33608  -0.32754  -0.31899  -0.29975  -0.27058
 Alpha  occ. eigenvalues --   -0.25615  -0.25199  -0.24445  -0.23629  -0.22062
 Alpha virt. eigenvalues --   -0.04550  -0.01016  -0.00736   0.01227   0.02414
 Alpha virt. eigenvalues --    0.03119   0.03942   0.04964   0.06028   0.08450
 Alpha virt. eigenvalues --    0.09312   0.10422   0.11495   0.12157   0.13382

 Mulliken charges:
               1
     1  O   -0.621485
     2  C    0.371155
     3  C   -0.193046
     4  C   -0.177242
     5  C    0.103202
     6  C    0.075165
     7  N   -0.460702
     8  C   -0.044125
     9  C    0.596299
    10  N   -0.615053
    11  C   -0.173512
    12  C    0.563396
    13  O   -0.560812
    14  O   -0.461469
    15  O   -0.529037
    16  C   -0.451720
    17  S    0.168354
    18  C    0.309280
    19  O   -0.631789
    20  C   -0.198050
    21  Cl   0.005845
    22  H    0.419514
    23  H    0.134170
    24  H    0.177709
    25  H    0.182451
    26  H    0.373615
    27  H    0.197052
    28  H    0.208264
    29  H    0.416844
    30  H    0.191747
    31  H    0.195928
    32  H    0.428054
 Sum of Mulliken charges =  -0.00000

 Dipole moment (field-independent basis, Debye):
    X=              0.3057    Y=              4.5848    Z=             -0.1905  Tot=              4.5989
 Quadrupole moment (field-independent basis, Debye-Ang):
   XX=           -131.4433   YY=           -116.6009   ZZ=           -132.8747
   XY=            -11.9804   XZ=              0.3460   YZ=              1.8506

 Normal termination of Gaussian 16 at Thu Dec 28 11:06:16 2023.
