 Gaussian 16, Revision A.03,
 Gaussian 16:  ES64L-G16RevA.03 25-Dec-2016

 --------------------
 # opt b3lyp/6-31g(d)
 --------------------

 -------------
 molecule_15_1
 -------------
 Symbolic Z-matrix:
 Charge =  0 Multiplicity = 1

 SCF Done:  E(RB3LYP) =  -1073.95741406     A.U. after   14 cycles
 SCF Done:  E(RB3LYP) =  -1073.98993347     A.U. after   13 cycles
 SCF Done:  E(RB3LYP) =  -1074.00652237     A.U. after   12 cycles
 SCF Done:  E(RB3LYP) =  -1074.01214388     A.U. after   12 cycles
 SCF Done:  E(RB3LYP) =  -1074.01423465     A.U. after   12 cycles
 SCF Done:  E(RB3LYP) =  -1074.01537662     A.U. after   12 cycles
 SCF Done:  E(RB3LYP) =  -1074.01736081     A.U. after   11 cycles
 SCF Done:  E(RB3LYP) =  -1074.02371551     A.U. after   14 cycles
 SCF Done:  E(RB3LYP) =  -1074.02671335     A.U. after   13 cycles
 SCF Done:  E(RB3LYP) =  -1074.03008751     A.U. after   12 cycles
 SCF Done:  E(RB3LYP) =  -1074.03741447     A.U. after   11 cycles
 SCF Done:  E(RB3LYP) =  -1074.03755170     A.U. after   11 cycles
 SCF Done:  E(RB3LYP) =  -1074.03756632     A.U. after   10 cycles
 SCF Done:  E(RB3LYP) =  -1074.03756605     A.U. after    9 cycles
 SCF Done:  E(RB3LYP) =  -1074.03757184     A.U. after    9 cycles
 SCF Done:  E(RB3LYP) =  -1074.03757242     A.U. after    7 cycles
 SCF Done:  E(RB3LYP) =  -1074.03757269     A.U. after    7 cycles
 SCF Done:  E(RB3LYP) =  -1074.03757314     A.U. after    7 cycles
 SCF Done:  E(RB3LYP) =  -1074.03757327     A.U. after    6 cycles
 SCF Done:  E(RB3LYP) =  -1074.03757336     A.U. after    7 cycles
 Optimization completed.
    -- Stationary point found.

                         Standard orientation:
 ---------------------------------------------------------------------
 Center     Atomic      Atomic             Coordinates (Angstroms)
 Number     Number       Type             X           Y           Z
 ---------------------------------------------------------------------
      1          8           0       -3.968987   -2.703483   -0.696782
      2          6           0       -3.129373   -1.712100   -0.290220
      3          6           0       -3.575926   -0.380541   -0.302880
      4          8           0       -4.875341   -0.161101   -0.746640
      5          6           0       -5.783898    0.258117    0.284773
      6          6           0       -2.711984    0.645042    0.091393
      7          8           0       -3.132295    1.960504    0.089949
      8          6           0       -3.390192    2.511215   -1.207626
      9          6           0       -1.413016    0.365569    0.545508
     10          6           0       -1.009533   -0.981090    0.577925
     11          8           0        0.244019   -1.356500    0.987721
     12          6           0        0.986919   -0.377570    1.726149
     13          6           0        0.983301    0.983189    1.028691
     14          6           0        1.627671    0.933355   -0.380736
     15          6           0        3.076579    0.495480   -0.395140
     16          6           0        3.429927   -0.850493   -0.581893
     17          6           0        4.759487   -1.263605   -0.577604
     18          6           0        5.777265   -0.324060   -0.385114
     19          8           0        7.068946   -0.778808   -0.393242
     20          6           0        5.449838    1.022260   -0.198598
     21          6           0        4.112176    1.418406   -0.205446
     22          6           0       -0.474979    1.476737    0.973763
     23          6           0       -1.845605   -2.016017    0.148501
     24          1           0       -4.777680   -2.253207   -1.004859
     25          1           0       -5.476347    1.221440    0.702240
     26          1           0       -5.833429   -0.488761    1.086864
     27          1           0       -6.763234    0.353412   -0.190542
     28          1           0       -3.680829    3.551325   -1.042036
     29          1           0       -2.486105    2.480530   -1.829117
     30          1           0       -4.197805    1.975365   -1.715759
     31          1           0        0.555900   -0.286388    2.734057
     32          1           0        1.992771   -0.792485    1.813815
     33          1           0        1.572319    1.672133    1.649234
     34          1           0        1.034530    0.268422   -1.018721
     35          1           0        1.545053    1.937006   -0.817866
     36          1           0        2.644651   -1.587988   -0.730063
     37          1           0        5.026442   -2.305344   -0.725947
     38          1           0        7.666254   -0.027718   -0.253960
     39          1           0        6.237872    1.760165   -0.055431
     40          1           0        3.874012    2.471309   -0.067783
     41          1           0       -0.770380    1.854686    1.962865
     42          1           0       -0.567991    2.330399    0.292781
     43          1           0       -1.498685   -3.042559    0.173512
 ---------------------------------------------------------------------

 The electronic state is 1-A.
 Alpha  occ. eigenvalues --  -19.17699 -19.17640 -19.16811 -19.16706 -19.16689
 Alpha  occ. eigenvalues --  -10.24585 -10.24293 -10.24026 -10.23994 -10.23696
 Alpha  occ. eigenvalues --  -10.23287 -10.23191 -10.22798 -10.19401 -10.18878
 Alpha  occ. eigenvalues --  -10.18796 -10.18770 -10.18579 -10.18430 -10.18404
 Alpha  occ. eigenvalues --  -10.18387 -10.18101 -10.17261  -1.06912  -1.05603
 Alpha  occ. eigenvalues --   -1.05399  -1.04960  -1.03497  -0.85047  -0.84213
 Alpha  occ. eigenvalues --   -0.81370  -0.76096  -0.75118  -0.74359  -0.73648
 Alpha  occ. eigenvalues --   -0.70666  -0.68644  -0.67152  -0.65192  -0.62136
 Alpha  occ. eigenvalues --   -0.61630  -0.59330  -0.58513  -0.56115  -0.54002
 Alpha  occ. eigenvalues --   -0.53586  -0.52140  -0.50241  -0.49539  -0.48012
 Alpha  occ. eigenvalues --   -0.47231  -0.47049  -0.46502  -0.45722  -0.45546
 Alpha  occ. eigenvalues --   -0.44009  -0.43637  -0.43459  -0.42410  -0.41886
 Alpha  occ. eigenvalues --   -0.41410  -0.41127  -0.40337  -0.39915  -0.39055
 Alpha  occ. eigenvalues --   -0.38582  -0.38147  -0.36752  -0.36189  -0.35845
 Alpha  occ. eigenvalues --   -0.34814  -0.34619  -0.33929  -0.33136  -0.32666
 Alpha  occ. eigenvalues --   -0.31459  -0.31114  -0.30008  -0.27565  -0.26787
 Alpha  occ. eigenvalues --   -0.24810  -0.21629  -0.21250  -0.19946
 Alpha virt. eigenvalues --    0.00015   0.01022   0.01533   0.02469   0.06398
 Alpha virt. eigenvalues --    0.06904   0.08720   0.10050   0.11179   0.11981
 Alpha virt. eigenvalues --    0.12409   0.13137   0.13742   0.14497   0.14550

 Mulliken charges:
               1
     1  O   -0.656077
     2  C    0.330095
     3  C    0.248670
     4  O   -0.557051
     5  C   -0.219885
     6  C    0.243669
     7  O   -0.531018
     8  C   -0.218652
     9  C    0.056576
    10  C    0.329742
    11  O   -0.537853
    12  C   -0.045152
    13  C   -0.123310
    14  C   -0.351611
    15  C    0.160999
    16  C   -0.195983
    17  C   -0.159353
    18  C    0.348047
    19  O   -0.643704
    20  C   -0.193304
    21  C   -0.190429
    22  C   -0.326596
    23  C   -0.251425
    24  H    0.416905
    25  H    0.173600
    26  H    0.151689
    27  H    0.158915
    28  H    0.158043
    29  H    0.146401
    30  H    0.169301
    31  H    0.139873
    32  H    0.163998
    33  H    0.128329
    34  H    0.160743
    35  H    0.137841
    36  H    0.146589
    37  H    0.140330
    38  H    0.405880
    39  H    0.115941
    40  H    0.121862
    41  H    0.153140
    42  H    0.149636
    43  H    0.144588
 Sum of Mulliken charges =  -0.00000

 Dipole moment (field-independent basis, Debye):
    X=             -0.3465    Y=              3.8598    Z=              0.5203  Tot=              3.9101
 Quadrupole moment (field-independent basis, Debye-Ang):
   XX=           -107.6506   YY=           -134.0617   ZZ=           -133.7562
   XY=              5.3250   XZ=              3.8400   YZ=             -1.6692

 Normal termination of Gaussian 16 at Thu Dec 28 10:46:17 2023.
