 Gaussian 16, Revision A.03,
 Gaussian 16:  ES64L-G16RevA.03 25-Dec-2016

 --------------------
 # opt b3lyp/6-31g(d)
 --------------------

 -------------
 molecule_10_1
 -------------
 Symbolic Z-matrix:
 Charge =  0 Multiplicity = 1

 SCF Done:  E(RB3LYP) =  -1795.02497910     A.U. after   18 cycles
 SCF Done:  E(RB3LYP) =  -1795.06037368     A.U. after   13 cycles
 SCF Done:  E(RB3LYP) =  -1795.07418079     A.U. after   14 cycles
 SCF Done:  E(RB3LYP) =  -1795.07613610     A.U. after   13 cycles
 SCF Done:  E(RB3LYP) =  -1795.07687062     A.U. after   13 cycles
 SCF Done:  E(RB3LYP) =  -1795.07736938     A.U. after   13 cycles
 SCF Done:  E(RB3LYP) =  -1795.07761259     A.U. after   13 cycles
 SCF Done:  E(RB3LYP) =  -1795.07788321     A.U. after   11 cycles
 SCF Done:  E(RB3LYP) =  -1795.07845789     A.U. after   13 cycles
 SCF Done:  E(RB3LYP) =  -1795.07877523     A.U. after   13 cycles
 SCF Done:  E(RB3LYP) =  -1795.07962200     A.U. after   12 cycles
 SCF Done:  E(RB3LYP) =  -1795.07969047     A.U. after   12 cycles
 SCF Done:  E(RB3LYP) =  -1795.07976807     A.U. after   11 cycles
 SCF Done:  E(RB3LYP) =  -1795.07981353     A.U. after   10 cycles
 SCF Done:  E(RB3LYP) =  -1795.07983742     A.U. after   10 cycles
 SCF Done:  E(RB3LYP) =  -1795.07984444     A.U. after   10 cycles
 SCF Done:  E(RB3LYP) =  -1795.07984542     A.U. after    8 cycles
 SCF Done:  E(RB3LYP) =  -1795.07984563     A.U. after    7 cycles
 SCF Done:  E(RB3LYP) =  -1795.07984575     A.U. after    7 cycles
 SCF Done:  E(RB3LYP) =  -1795.07984578     A.U. after    6 cycles
 Optimization completed.
    -- Stationary point found.

                         Standard orientation:
 ---------------------------------------------------------------------
 Center     Atomic      Atomic             Coordinates (Angstroms)
 Number     Number       Type             X           Y           Z
 ---------------------------------------------------------------------
      1          6           0       -6.147923   -4.027322   -1.149179
      2          8           0       -4.811209   -3.856297   -0.696291
      3          6           0       -4.295121   -2.600981   -0.666438
      4          6           0       -4.975753   -1.454380   -1.044751
      5          6           0       -4.326586   -0.198273   -0.969711
      6          6           0       -2.978962   -0.118872   -0.492305
      7          6           0       -2.311311    1.124643   -0.409172
      8          6           0       -2.964689    2.287123   -0.834649
      9          6           0       -2.276400    3.593374   -0.787725
     10          8           0       -2.795901    4.638031   -1.143401
     11          6           0       -4.294087    2.212544   -1.312723
     12          6           0       -4.959825    1.010375   -1.369987
     13          6           0       -2.315945   -1.323280   -0.125627
     14          8           0       -1.002917   -1.327343    0.237547
     15          6           0       -0.349946   -0.122610    0.717117
     16          6           0        1.109891   -0.293255    0.300529
     17          6           0        1.327128   -0.465169   -1.088076
     18          6           0        2.591870   -0.621401   -1.588793
     19          6           0        3.717871   -0.606607   -0.725275
     20          6           0        3.524816   -0.439598    0.689012
     21          6           0        4.684978   -0.431969    1.509700
     22          6           0        5.937839   -0.592035    0.960914
     23          6           0        6.126758   -0.770260   -0.425726
     24          8           0        7.367954   -0.953807   -0.971693
     25          6           0        5.024456   -0.766188   -1.267481
     26          8           0        5.143484   -0.976162   -2.619970
     27          6           0        5.843404    0.035909   -3.353622
     28          6           0        2.177567   -0.285655    1.193226
     29          6           0        1.887292   -0.142491    2.658866
     30          8           0        2.757541   -0.091334    3.528115
     31          6           0       -0.548229   -0.077046    2.221315
     32          8           0       -1.856471   -0.022780    2.532313
     33          6           0       -2.223508    0.000270    3.912037
     34          6           0        0.483768   -0.074365    3.082228
     35          6           0       -0.947300    1.168686    0.124833
     36          6           0       -0.248793    2.325324    0.188311
     37          6           0       -0.817963    3.603674   -0.257437
     38          8           0       -0.194073    4.650646   -0.211540
     39          6           0       -2.954729   -2.536765   -0.204794
     40          1           0       -6.347544   -5.098179   -1.088340
     41          1           0       -6.263405   -3.692136   -2.187570
     42          1           0       -6.857889   -3.485841   -0.511320
     43          1           0       -5.995693   -1.493375   -1.407814
     44          1           0       -4.769260    3.135799   -1.628275
     45          1           0       -5.982798    0.968110   -1.735001
     46          1           0        0.473513   -0.481225   -1.757989
     47          1           0        2.756385   -0.764726   -2.650324
     48          1           0        4.573210   -0.301415    2.574835
     49          1           0        6.811589   -0.589080    1.611590
     50          1           0        8.025272   -0.936542   -0.258806
     51          1           0        5.776085   -0.256575   -4.403912
     52          1           0        5.367487    1.015546   -3.216741
     53          1           0        6.893456    0.091303   -3.053257
     54          1           0       -1.856726   -0.895347    4.425756
     55          1           0       -3.313421    0.019349    3.927028
     56          1           0       -1.827176    0.895746    4.403907
     57          1           0        0.344728   -0.013147    4.155018
     58          1           0        0.762216    2.363799    0.581864
     59          1           0       -2.440702   -3.450101    0.071000
 ---------------------------------------------------------------------

 The electronic state is 1-A.
 Alpha  occ. eigenvalues --  -19.21305 -19.19991 -19.19758 -19.18934 -19.16565
 Alpha  occ. eigenvalues --  -19.14985 -19.14938 -19.12945 -10.29657 -10.28135
 Alpha  occ. eigenvalues --  -10.27849 -10.27812 -10.27645 -10.27099 -10.27079
 Alpha  occ. eigenvalues --  -10.26083 -10.25520 -10.25469 -10.24395 -10.24193
 Alpha  occ. eigenvalues --  -10.23068 -10.22979 -10.22370 -10.21886 -10.21727
 Alpha  occ. eigenvalues --  -10.21220 -10.21057 -10.20986 -10.20834 -10.20773
 Alpha  occ. eigenvalues --  -10.20755 -10.20491 -10.19898 -10.19884 -10.19858
 Alpha  occ. eigenvalues --  -10.19816 -10.19815 -10.19526 -10.18567  -1.10587
 Alpha  occ. eigenvalues --   -1.08452  -1.08291  -1.07311  -1.05675  -1.04557
 Alpha  occ. eigenvalues --   -1.03056  -1.02964  -0.89826  -0.88984  -0.86820
 Alpha  occ. eigenvalues --   -0.84163  -0.82360  -0.81467  -0.78816  -0.77967
 Alpha  occ. eigenvalues --   -0.77727  -0.75690  -0.75003  -0.74084  -0.73365
 Alpha  occ. eigenvalues --   -0.72724  -0.70944  -0.68756  -0.68000  -0.64803
 Alpha  occ. eigenvalues --   -0.64768  -0.63275  -0.62892  -0.62132  -0.61660
 Alpha  occ. eigenvalues --   -0.59659  -0.57066  -0.56623  -0.56420  -0.54493
 Alpha  occ. eigenvalues --   -0.54192  -0.53457  -0.53178  -0.52231  -0.51462
 Alpha  occ. eigenvalues --   -0.51005  -0.49881  -0.49386  -0.49153  -0.48801
 Alpha  occ. eigenvalues --   -0.48477  -0.47873  -0.46863  -0.46664  -0.46023
 Alpha  occ. eigenvalues --   -0.45717  -0.45079  -0.44594  -0.44249  -0.44101
 Alpha  occ. eigenvalues --   -0.43818  -0.43396  -0.43094  -0.42585  -0.42041
 Alpha  occ. eigenvalues --   -0.41770  -0.41649  -0.41276  -0.40714  -0.40477
 Alpha  occ. eigenvalues --   -0.40200  -0.39990  -0.39657  -0.38780  -0.37979
 Alpha  occ. eigenvalues --   -0.37760  -0.37274  -0.37095  -0.36785  -0.36447
 Alpha  occ. eigenvalues --   -0.36054  -0.35797  -0.35427  -0.35036  -0.33797
 Alpha  occ. eigenvalues --   -0.33455  -0.32486  -0.31230  -0.29660  -0.28704
 Alpha  occ. eigenvalues --   -0.28504  -0.27111  -0.26102  -0.25693  -0.24601
 Alpha  occ. eigenvalues --   -0.24439  -0.23937  -0.23893  -0.21513  -0.20650
 Alpha virt. eigenvalues --   -0.11716  -0.07563  -0.04767  -0.03635  -0.01764
 Alpha virt. eigenvalues --   -0.01031   0.00449   0.02735   0.03822   0.05749
 Alpha virt. eigenvalues --    0.07178   0.07867   0.08107   0.08507   0.08968

 Mulliken charges:
               1
     1  C   -0.218390
     2  O   -0.505697
     3  C    0.401438
     4  C   -0.298753
     5  C    0.167280
     6  C    0.003022
     7  C    0.058406
     8  C    0.022149
     9  C    0.321100
    10  O   -0.439594
    11  C   -0.169760
    12  C   -0.204903
    13  C    0.369593
    14  O   -0.576734
    15  C    0.072189
    16  C    0.069517
    17  C   -0.166957
    18  C   -0.181275
    19  C    0.085779
    20  C    0.051407
    21  C   -0.193392
    22  C   -0.202411
    23  C    0.330488
    24  O   -0.644092
    25  C    0.242744
    26  O   -0.525217
    27  C   -0.218102
    28  C   -0.013407
    29  C    0.418556
    30  O   -0.509063
    31  C    0.474354
    32  O   -0.497259
    33  C   -0.226129
    34  C   -0.297519
    35  C    0.138196
    36  C   -0.296260
    37  C    0.410602
    38  O   -0.437914
    39  C   -0.260543
    40  H    0.177234
    41  H    0.159403
    42  H    0.157883
    43  H    0.134847
    44  H    0.166663
    45  H    0.138409
    46  H    0.142894
    47  H    0.157802
    48  H    0.193501
    49  H    0.126754
    50  H    0.412732
    51  H    0.160417
    52  H    0.144774
    53  H    0.172916
    54  H    0.171237
    55  H    0.183188
    56  H    0.171154
    57  H    0.149769
    58  H    0.167138
    59  H    0.157836
 Sum of Mulliken charges =  -0.00000

 Dipole moment (field-independent basis, Debye):
    X=             -2.9781    Y=             -5.2238    Z=              0.5188  Tot=              6.0354
 Quadrupole moment (field-independent basis, Debye-Ang):
   XX=           -159.6691   YY=           -251.5336   ZZ=           -208.2989
   XY=             21.6521   XZ=             -4.3756   YZ=              3.6181

 Normal termination of Gaussian 16 at Thu Dec 28 10:38:49 2023.
