 Gaussian 16, Revision A.03,
 Gaussian 16:  ES64L-G16RevA.03 25-Dec-2016

 --------------------
 # opt b3lyp/6-31g(d)
 --------------------

 ------------
 molecule_6_1
 ------------
 Symbolic Z-matrix:
 Charge =  0 Multiplicity = 1

 SCF Done:  E(RB3LYP) =  -837.740541057     A.U. after   15 cycles
 SCF Done:  E(RB3LYP) =  -837.772997708     A.U. after   13 cycles
 SCF Done:  E(RB3LYP) =  -837.781175825     A.U. after   13 cycles
 SCF Done:  E(RB3LYP) =  -837.781680135     A.U. after   12 cycles
 SCF Done:  E(RB3LYP) =  -837.781545829     A.U. after   12 cycles
 SCF Done:  E(RB3LYP) =  -837.781830143     A.U. after   12 cycles
 SCF Done:  E(RB3LYP) =  -837.781906861     A.U. after   11 cycles
 SCF Done:  E(RB3LYP) =  -837.781923460     A.U. after   11 cycles
 SCF Done:  E(RB3LYP) =  -837.781928350     A.U. after    9 cycles
 SCF Done:  E(RB3LYP) =  -837.781930958     A.U. after    9 cycles
 SCF Done:  E(RB3LYP) =  -837.781933456     A.U. after   10 cycles
 SCF Done:  E(RB3LYP) =  -837.781934030     A.U. after    8 cycles
 SCF Done:  E(RB3LYP) =  -837.781934150     A.U. after    7 cycles
 SCF Done:  E(RB3LYP) =  -837.781934198     A.U. after    7 cycles
 Optimization completed.
    -- Stationary point found.

                         Standard orientation:
 ---------------------------------------------------------------------
 Center     Atomic      Atomic             Coordinates (Angstroms)
 Number     Number       Type             X           Y           Z
 ---------------------------------------------------------------------
      1          8           0       -2.159581    0.179328    1.929219
      2          6           0       -2.330705   -0.820067    1.037930
      3          6           0       -2.429413   -0.354658   -0.419991
      4          6           0       -1.593996   -1.296847   -1.324451
      5          6           0       -0.154186   -1.322407   -0.920525
      6          6           0        0.710978   -2.390401   -0.896725
      7          7           0        1.946065   -1.982440   -0.437050
      8          6           0        1.884233   -0.640319   -0.140653
      9          6           0        2.875125    0.211957    0.355642
     10          8           0        4.107515   -0.327305    0.608271
     11          6           0        2.532082    1.545353    0.552419
     12          6           0        1.237540    2.008738    0.256133
     13          6           0        0.222825    1.172995   -0.223604
     14          6           0       -1.130171    1.705921   -0.533061
     15          6           0       -1.239481    3.205701   -0.754288
     16          7           0       -2.242829    1.069652   -0.644786
     17          6           0        0.573630   -0.188694   -0.428933
     18          8           0       -2.445949   -1.979767    1.373375
     19          1           0       -2.139102   -0.254496    2.803526
     20          1           0       -3.482177   -0.551959   -0.670394
     21          1           0       -2.024771   -2.301778   -1.273005
     22          1           0       -1.718346   -0.939743   -2.355130
     23          1           0        0.537500   -3.423023   -1.166896
     24          1           0        2.758836   -2.564299   -0.309964
     25          1           0        4.692509    0.369770    0.944137
     26          1           0        3.276156    2.239719    0.937882
     27          1           0        1.032170    3.059875    0.424149
     28          1           0       -1.071701    3.755361    0.180776
     29          1           0       -0.503554    3.565473   -1.482660
     30          1           0       -2.246820    3.432935   -1.105848
 ---------------------------------------------------------------------

 The electronic state is 1-A.
 Alpha  occ. eigenvalues --  -19.19348 -19.18902 -19.12824 -14.38267 -14.30352
 Alpha  occ. eigenvalues --  -10.31149 -10.25842 -10.22690 -10.22080 -10.21962
 Alpha  occ. eigenvalues --  -10.21901 -10.19034 -10.18985 -10.18926 -10.18916
 Alpha  occ. eigenvalues --  -10.18705 -10.18003 -10.16906  -1.09753  -1.07216
 Alpha  occ. eigenvalues --   -1.00466  -0.98119  -0.90823  -0.84197  -0.80352
 Alpha  occ. eigenvalues --   -0.77565  -0.74164  -0.71739  -0.70508  -0.66797
 Alpha  occ. eigenvalues --   -0.63723  -0.61182  -0.60132  -0.57129  -0.56601
 Alpha  occ. eigenvalues --   -0.52861  -0.51654  -0.48889  -0.47729  -0.47645
 Alpha  occ. eigenvalues --   -0.47020  -0.45477  -0.43875  -0.43001  -0.42420
 Alpha  occ. eigenvalues --   -0.41111  -0.40969  -0.40311  -0.39956  -0.38817
 Alpha  occ. eigenvalues --   -0.38678  -0.37484  -0.36996  -0.36562  -0.34867
 Alpha  occ. eigenvalues --   -0.34054  -0.33031  -0.30626  -0.29574  -0.26568
 Alpha  occ. eigenvalues --   -0.24747  -0.22360  -0.22135  -0.19550
 Alpha virt. eigenvalues --   -0.03299   0.00766   0.02486   0.05015   0.05385
 Alpha virt. eigenvalues --    0.07577   0.08408   0.08889   0.10153   0.12332
 Alpha virt. eigenvalues --    0.13381   0.14628   0.16066   0.16770   0.17717

 Mulliken charges:
               1
     1  O   -0.558393
     2  C    0.602846
     3  C   -0.097436
     4  C   -0.342522
     5  C    0.077276
     6  C    0.001561
     7  N   -0.691083
     8  C    0.296505
     9  C    0.323113
    10  O   -0.660132
    11  C   -0.212269
    12  C   -0.215037
    13  C    0.106900
    14  C    0.260070
    15  C   -0.511415
    16  N   -0.439172
    17  C   -0.006359
    18  O   -0.476227
    19  H    0.405219
    20  H    0.173940
    21  H    0.160619
    22  H    0.161785
    23  H    0.154967
    24  H    0.339963
    25  H    0.414064
    26  H    0.115506
    27  H    0.128284
    28  H    0.158713
    29  H    0.153693
    30  H    0.175023
 Sum of Mulliken charges =  -0.00000

 Dipole moment (field-independent basis, Debye):
    X=              4.3847    Y=              0.0276    Z=              0.6020  Tot=              4.4259
 Quadrupole moment (field-independent basis, Debye-Ang):
   XX=            -93.2539   YY=            -96.1136   ZZ=            -98.4038
   XY=              0.3020   XZ=              3.7369   YZ=              6.8016

 Normal termination of Gaussian 16 at Thu Dec 28 10:03:38 2023.
