 Gaussian 16, Revision A.03,
 Gaussian 16:  ES64L-G16RevA.03 25-Dec-2016

 --------------------
 # opt b3lyp/6-31g(d)
 --------------------

 ------------
 molecule_1_1
 ------------
 Symbolic Z-matrix:
 Charge =  0 Multiplicity = 1

 SCF Done:  E(RB3LYP) =  -765.396260244     A.U. after   15 cycles
 SCF Done:  E(RB3LYP) =  -765.421909377     A.U. after   13 cycles
 SCF Done:  E(RB3LYP) =  -765.425876469     A.U. after   12 cycles
 SCF Done:  E(RB3LYP) =  -765.426067925     A.U. after   11 cycles
 SCF Done:  E(RB3LYP) =  -765.426066011     A.U. after   12 cycles
 SCF Done:  E(RB3LYP) =  -765.426068355     A.U. after   12 cycles
 SCF Done:  E(RB3LYP) =  -765.426121307     A.U. after   11 cycles
 SCF Done:  E(RB3LYP) =  -765.426130792     A.U. after   11 cycles
 SCF Done:  E(RB3LYP) =  -765.426133502     A.U. after   10 cycles
 SCF Done:  E(RB3LYP) =  -765.426133824     A.U. after    8 cycles
 Optimization completed.
    -- Stationary point found.

                         Standard orientation:
 ---------------------------------------------------------------------
 Center     Atomic      Atomic             Coordinates (Angstroms)
 Number     Number       Type             X           Y           Z
 ---------------------------------------------------------------------
      1          6           0       -2.845949    1.462920    1.155591
      2          6           0       -2.329428    0.966092   -0.213447
      3          6           0       -3.152012   -0.212885   -0.765478
      4          6           0       -2.872185   -1.516998   -0.010354
      5          6           0       -0.857088    0.601836   -0.141346
      6          6           0       -0.416277   -0.731811   -0.035534
      7          6           0        0.949082   -1.039195    0.028997
      8          6           0        1.896285   -0.020167   -0.008138
      9          6           0        3.335965   -0.384276    0.063992
     10          8           0        4.158212    0.699298    0.016853
     11          8           0        3.767461   -1.514550    0.155220
     12          6           0        1.477282    1.315266   -0.111289
     13          6           0        0.120326    1.617087   -0.174280
     14          8           0       -0.329348    2.908192   -0.275743
     15          6           0       -1.393126   -1.869496    0.011301
     16          8           0       -1.014696   -3.027580    0.083465
     17          1           0       -2.760876    0.691476    1.928842
     18          1           0       -3.900263    1.753831    1.079209
     19          1           0       -2.276054    2.335475    1.487308
     20          1           0       -2.425518    1.806525   -0.910978
     21          1           0       -2.905847   -0.354041   -1.826296
     22          1           0       -4.220590    0.029147   -0.719992
     23          1           0       -3.413637   -2.368038   -0.434775
     24          1           0       -3.200163   -1.431230    1.036101
     25          1           0        1.258811   -2.074622    0.108691
     26          1           0        5.063696    0.341689    0.070591
     27          1           0        2.216806    2.110493   -0.143784
     28          1           0        0.433356    3.506171   -0.313379
 ---------------------------------------------------------------------

 The electronic state is 1-A.
 Alpha  occ. eigenvalues --  -19.20050 -19.19707 -19.14039 -19.13424 -10.32524
 Alpha  occ. eigenvalues --  -10.27344 -10.26694 -10.21705 -10.21577 -10.21278
 Alpha  occ. eigenvalues --  -10.20695 -10.20582 -10.19962 -10.19510 -10.19290
 Alpha  occ. eigenvalues --  -10.18417  -1.10765  -1.07709  -1.03396  -1.01594
 Alpha  occ. eigenvalues --   -0.87844  -0.83230  -0.77128  -0.76716  -0.74239
 Alpha  occ. eigenvalues --   -0.67705  -0.66773  -0.64813  -0.60620  -0.59060
 Alpha  occ. eigenvalues --   -0.55263  -0.52590  -0.51298  -0.49206  -0.48131
 Alpha  occ. eigenvalues --   -0.47614  -0.47085  -0.45217  -0.44061  -0.43500
 Alpha  occ. eigenvalues --   -0.42609  -0.42036  -0.41482  -0.40717  -0.39415
 Alpha  occ. eigenvalues --   -0.39152  -0.38659  -0.37702  -0.37236  -0.34155
 Alpha  occ. eigenvalues --   -0.34104  -0.33180  -0.32880  -0.32002  -0.28031
 Alpha  occ. eigenvalues --   -0.26516  -0.24440  -0.23766
 Alpha virt. eigenvalues --   -0.06362  -0.04273   0.03196   0.05106   0.06738
 Alpha virt. eigenvalues --    0.07174   0.08929   0.11334   0.11990   0.13727
 Alpha virt. eigenvalues --    0.15227   0.15761   0.16317   0.18030   0.18353

 Mulliken charges:
               1
     1  C   -0.451865
     2  C   -0.153117
     3  C   -0.284369
     4  C   -0.364662
     5  C    0.090267
     6  C    0.011291
     7  C   -0.207667
     8  C    0.064737
     9  C    0.546548
    10  O   -0.590707
    11  O   -0.465377
    12  C   -0.221755
    13  C    0.299464
    14  O   -0.648160
    15  C    0.409568
    16  O   -0.459402
    17  H    0.147521
    18  H    0.147234
    19  H    0.167192
    20  H    0.157964
    21  H    0.148927
    22  H    0.141588
    23  H    0.170993
    24  H    0.171463
    25  H    0.190844
    26  H    0.413556
    27  H    0.153625
    28  H    0.414300
 Sum of Mulliken charges =  -0.00000

 Dipole moment (field-independent basis, Debye):
    X=             -0.6273    Y=              5.2423    Z=             -0.3069  Tot=              5.2886
 Quadrupole moment (field-independent basis, Debye-Ang):
   XX=            -79.7188   YY=            -98.8612   ZZ=            -91.2304
   XY=              9.0720   XZ=             -0.3844   YZ=              0.2231

 Normal termination of Gaussian 16 at Thu Dec 28 10:00:17 2023.
