 Gaussian 16, Revision A.03,
 Gaussian 16:  ES64L-G16RevA.03 25-Dec-2016

 --------------------
 # opt b3lyp/6-31g(d)
 --------------------

 -------------
 molecule_13_1
 -------------
 Symbolic Z-matrix:
 Charge =  0 Multiplicity = 1

 SCF Done:  E(RB3LYP) =  -1135.19175259     A.U. after   18 cycles
 SCF Done:  E(RB3LYP) =  -1135.21659479     A.U. after   13 cycles
 SCF Done:  E(RB3LYP) =  -1135.22116243     A.U. after   14 cycles
 SCF Done:  E(RB3LYP) =  -1135.22144871     A.U. after   12 cycles
 SCF Done:  E(RB3LYP) =  -1135.22271835     A.U. after   12 cycles
 SCF Done:  E(RB3LYP) =  -1135.22338072     A.U. after   12 cycles
 SCF Done:  E(RB3LYP) =  -1135.22350763     A.U. after   15 cycles
 SCF Done:  E(RB3LYP) =  -1135.22501742     A.U. after   12 cycles
 SCF Done:  E(RB3LYP) =  -1135.22569723     A.U. after   11 cycles
 SCF Done:  E(RB3LYP) =  -1135.22650067     A.U. after   13 cycles
 SCF Done:  E(RB3LYP) =  -1135.23199651     A.U. after   10 cycles
 SCF Done:  E(RB3LYP) =  -1135.23204179     A.U. after   10 cycles
 SCF Done:  E(RB3LYP) =  -1135.23211928     A.U. after   11 cycles
 SCF Done:  E(RB3LYP) =  -1135.23216800     A.U. after   10 cycles
 SCF Done:  E(RB3LYP) =  -1135.23219228     A.U. after   10 cycles
 SCF Done:  E(RB3LYP) =  -1135.23220462     A.U. after   10 cycles
 SCF Done:  E(RB3LYP) =  -1135.23221437     A.U. after    9 cycles
 SCF Done:  E(RB3LYP) =  -1135.23221792     A.U. after    9 cycles
 SCF Done:  E(RB3LYP) =  -1135.23221808     A.U. after    7 cycles
 SCF Done:  E(RB3LYP) =  -1135.23221811     A.U. after    6 cycles
 Optimization completed.
    -- Stationary point found.

                         Standard orientation:
 ---------------------------------------------------------------------
 Center     Atomic      Atomic             Coordinates (Angstroms)
 Number     Number       Type             X           Y           Z
 ---------------------------------------------------------------------
      1          8           0       -0.030533    1.499158    0.738279
      2          6           0        1.143223    1.227598    0.434602
      3          6           0        2.134836    2.290767    0.252896
      4          8           0        1.778872    3.598231    0.471589
      5          6           0        0.727952    4.117293   -0.353767
      6          6           0        3.446819    2.023292   -0.039487
      7          6           0        4.506064    3.075262   -0.196121
      8          7           0        3.850596    0.721999   -0.170954
      9          6           0        2.999812   -0.351812   -0.041869
     10          6           0        1.629170   -0.160480    0.238291
     11          6           0        0.794745   -1.315188    0.380909
     12          6           0       -0.712011   -1.224104    0.654477
     13          8           0       -1.217353   -2.467789    1.161961
     14          6           0       -1.489946   -0.776603   -0.600398
     15          6           0       -2.921178   -0.271183   -0.349220
     16          6           0       -3.934207   -1.323175    0.129706
     17          6           0       -5.352889   -0.773455    0.360049
     18          6           0       -6.078919   -0.309955   -0.912341
     19          6           0       -7.546971    0.094037   -0.693995
     20          6           0       -7.739179    1.339274    0.180259
     21          6           0        1.373078   -2.567553    0.252328
     22          6           0        2.738518   -2.749158   -0.036297
     23          6           0        3.554138   -1.648065   -0.191140
     24          8           0        4.898524   -1.662023   -0.469829
     25          6           0        5.532791   -2.925250   -0.608073
     26          1           0        0.631362    5.170763   -0.080313
     27          1           0        0.996577    4.043071   -1.416918
     28          1           0       -0.208499    3.589369   -0.167586
     29          1           0        5.260845    2.993559    0.596905
     30          1           0        5.022932    2.974214   -1.159036
     31          1           0        4.054739    4.065116   -0.136951
     32          1           0        4.820782    0.510314   -0.360690
     33          1           0       -0.878527   -0.495103    1.448066
     34          1           0       -1.506387   -2.997522    0.402835
     35          1           0       -1.498005   -1.618973   -1.314289
     36          1           0       -0.927690    0.026005   -1.084043
     37          1           0       -2.868771    0.548065    0.380868
     38          1           0       -3.280230    0.178039   -1.284950
     39          1           0       -3.571177   -1.771789    1.060327
     40          1           0       -3.983976   -2.140789   -0.608331
     41          1           0       -5.958027   -1.556956    0.839666
     42          1           0       -5.298969    0.052475    1.082837
     43          1           0       -6.044141   -1.123896   -1.651676
     44          1           0       -5.542734    0.535707   -1.365269
     45          1           0       -8.012137    0.272698   -1.673181
     46          1           0       -8.091315   -0.751575   -0.248941
     47          1           0       -7.365406    1.185261    1.198563
     48          1           0       -7.206853    2.201813   -0.240499
     49          1           0       -8.799290    1.607917    0.256219
     50          1           0        0.754519   -3.442722    0.410668
     51          1           0        3.135802   -3.754084   -0.126846
     52          1           0        5.457416   -3.511157    0.316704
     53          1           0        5.099569   -3.498893   -1.437243
     54          1           0        6.582269   -2.714779   -0.821070
 ---------------------------------------------------------------------

 The electronic state is 1-A.
 Alpha  occ. eigenvalues --  -19.19768 -19.15473 -19.13284 -19.09684 -14.39039
 Alpha  occ. eigenvalues --  -10.25648 -10.25574 -10.25026 -10.24518 -10.24211
 Alpha  occ. eigenvalues --  -10.22845 -10.22005 -10.21538 -10.19903 -10.19798
 Alpha  occ. eigenvalues --  -10.19649 -10.19084 -10.18256 -10.16975 -10.16888
 Alpha  occ. eigenvalues --  -10.16572 -10.16380 -10.16294 -10.16232 -10.16069
 Alpha  occ. eigenvalues --   -1.08191  -1.04223  -1.00548  -0.99359  -0.98150
 Alpha  occ. eigenvalues --   -0.85407  -0.79981  -0.79325  -0.77399  -0.76734
 Alpha  occ. eigenvalues --   -0.75568  -0.73407  -0.71814  -0.70654  -0.68158
 Alpha  occ. eigenvalues --   -0.67146  -0.64062  -0.62597  -0.61528  -0.60094
 Alpha  occ. eigenvalues --   -0.58870  -0.57013  -0.55266  -0.54410  -0.54109
 Alpha  occ. eigenvalues --   -0.52549  -0.49923  -0.48528  -0.47894  -0.46813
 Alpha  occ. eigenvalues --   -0.46164  -0.46077  -0.45809  -0.44937  -0.44060
 Alpha  occ. eigenvalues --   -0.43730  -0.43309  -0.42907  -0.42515  -0.42195
 Alpha  occ. eigenvalues --   -0.41419  -0.40848  -0.40702  -0.40439  -0.39462
 Alpha  occ. eigenvalues --   -0.38170  -0.37897  -0.37122  -0.36711  -0.36462
 Alpha  occ. eigenvalues --   -0.35991  -0.35401  -0.34595  -0.34114  -0.33699
 Alpha  occ. eigenvalues --   -0.33472  -0.32834  -0.31881  -0.31565  -0.30681
 Alpha  occ. eigenvalues --   -0.30258  -0.29799  -0.29183  -0.28045  -0.25532
 Alpha  occ. eigenvalues --   -0.24585  -0.23123  -0.21850  -0.19293
 Alpha virt. eigenvalues --   -0.03417  -0.00675   0.02590   0.07286   0.08376
 Alpha virt. eigenvalues --    0.08853   0.10042   0.10075   0.10253   0.11201
 Alpha virt. eigenvalues --    0.12390   0.12892   0.13134   0.13579   0.13937

 Mulliken charges:
               1
     1  O   -0.561929
     2  C    0.400384
     3  C    0.209066
     4  O   -0.527686
     5  C   -0.217125
     6  C    0.353105
     7  C   -0.533711
     8  N   -0.783482
     9  C    0.262430
    10  C    0.015898
    11  C    0.073042
    12  C    0.075956
    13  O   -0.626860
    14  C   -0.280237
    15  C   -0.256147
    16  C   -0.271743
    17  C   -0.255080
    18  C   -0.249154
    19  C   -0.247897
    20  C   -0.442378
    21  C   -0.203827
    22  C   -0.201403
    23  C    0.371734
    24  O   -0.550874
    25  C   -0.215942
    26  H    0.151845
    27  H    0.126552
    28  H    0.191794
    29  H    0.172048
    30  H    0.162519
    31  H    0.201416
    32  H    0.347049
    33  H    0.179305
    34  H    0.385932
    35  H    0.103891
    36  H    0.154073
    37  H    0.153382
    38  H    0.126633
    39  H    0.157825
    40  H    0.105832
    41  H    0.122314
    42  H    0.133538
    43  H    0.121429
    44  H    0.130954
    45  H    0.126419
    46  H    0.127176
    47  H    0.148120
    48  H    0.139946
    49  H    0.138519
    50  H    0.127636
    51  H    0.135623
    52  H    0.161404
    53  H    0.159465
    54  H    0.171220
 Sum of Mulliken charges =  -0.00000

 Dipole moment (field-independent basis, Debye):
    X=              5.6736    Y=             -1.8307    Z=             -3.5365  Tot=              6.9316
 Quadrupole moment (field-independent basis, Debye-Ang):
   XX=           -120.2204   YY=           -138.3335   ZZ=           -155.6028
   XY=             -6.3079   XZ=             -2.4435   YZ=             -0.0775

 Normal termination of Gaussian 16 at Thu Dec 28 10:41:51 2023.
