 Gaussian 16, Revision A.03,
 Gaussian 16:  ES64L-G16RevA.03 25-Dec-2016

 --------------------
 # opt b3lyp/6-31g(d)
 --------------------

 ------------
 molecule_8_1
 ------------
 Symbolic Z-matrix:
 Charge =  0 Multiplicity = 1

 SCF Done:  E(RB3LYP) =  -955.669142793     A.U. after   15 cycles
 SCF Done:  E(RB3LYP) =  -955.703903597     A.U. after   13 cycles
 SCF Done:  E(RB3LYP) =  -955.709328324     A.U. after   13 cycles
 SCF Done:  E(RB3LYP) =  -955.716158719     A.U. after   13 cycles
 SCF Done:  E(RB3LYP) =  -955.716592791     A.U. after   12 cycles
 SCF Done:  E(RB3LYP) =  -955.717020115     A.U. after   12 cycles
 SCF Done:  E(RB3LYP) =  -955.717467755     A.U. after   12 cycles
 SCF Done:  E(RB3LYP) =  -955.717851708     A.U. after   11 cycles
 SCF Done:  E(RB3LYP) =  -955.717974595     A.U. after   11 cycles
 SCF Done:  E(RB3LYP) =  -955.718002482     A.U. after   11 cycles
 SCF Done:  E(RB3LYP) =  -955.718018320     A.U. after   10 cycles
 SCF Done:  E(RB3LYP) =  -955.718025159     A.U. after   10 cycles
 SCF Done:  E(RB3LYP) =  -955.718025878     A.U. after    9 cycles
 SCF Done:  E(RB3LYP) =  -955.718026016     A.U. after    7 cycles
 SCF Done:  E(RB3LYP) =  -955.718026096     A.U. after    7 cycles
 SCF Done:  E(RB3LYP) =  -955.718026100     A.U. after    7 cycles
 Optimization completed.
    -- Stationary point found.

                         Standard orientation:
 ---------------------------------------------------------------------
 Center     Atomic      Atomic             Coordinates (Angstroms)
 Number     Number       Type             X           Y           Z
 ---------------------------------------------------------------------
      1          8           0       -0.048912    2.337898   -2.115115
      2          6           0        0.191824    2.797932   -0.868771
      3          6           0       -0.801379    2.295686    0.186200
      4          6           0       -0.052264    1.968661    1.503334
      5          6           0        1.007650    0.935707    1.285896
      6          6           0        2.263849    0.874017    1.840201
      7          7           0        2.953006   -0.201661    1.320610
      8          6           0        2.151474   -0.834194    0.399249
      9          6           0        2.426134   -1.941291   -0.408702
     10          8           0        3.659969   -2.521730   -0.291734
     11          6           0        1.424370   -2.361794   -1.275892
     12          6           0        0.179997   -1.707014   -1.313851
     13          6           0       -0.122610   -0.596189   -0.517454
     14          6           0       -1.458341    0.065309   -0.557516
     15          6           0       -2.672036   -0.766323   -0.968524
     16          6           0       -3.393317   -1.522607    0.184817
     17          6           0       -4.001113   -0.566936    1.221323
     18          6           0       -2.519069   -2.587643    0.863410
     19          7           0       -1.747138    1.282889   -0.251665
     20          6           0        0.912090   -0.149965    0.351759
     21          8           0        1.080328    3.586496   -0.625373
     22          1           0        0.627683    2.756447   -2.680860
     23          1           0       -1.409021    3.188981    0.395066
     24          1           0       -0.809214    1.634514    2.224759
     25          1           0        0.388308    2.890278    1.896673
     26          1           0        2.730053    1.530190    2.562303
     27          1           0        3.901056   -0.465657    1.537103
     28          1           0        3.714933   -3.269660   -0.906973
     29          1           0        1.602642   -3.212583   -1.930642
     30          1           0       -0.556591   -2.087951   -2.010995
     31          1           0       -3.387098   -0.069475   -1.415483
     32          1           0       -2.407959   -1.497049   -1.739811
     33          1           0       -4.228206   -2.048656   -0.302498
     34          1           0       -3.224417   -0.015585    1.761569
     35          1           0       -4.654795    0.173543    0.747490
     36          1           0       -4.592854   -1.126036    1.956613
     37          1           0       -3.109996   -3.162344    1.587056
     38          1           0       -1.680056   -2.135760    1.404411
     39          1           0       -2.100166   -3.293247    0.136506
 ---------------------------------------------------------------------

 The electronic state is 1-A.
 Alpha  occ. eigenvalues --  -19.19376 -19.18880 -19.12839 -14.38286 -14.30299
 Alpha  occ. eigenvalues --  -10.31151 -10.25852 -10.22468 -10.22096 -10.21952
 Alpha  occ. eigenvalues --  -10.21932 -10.19076 -10.19037 -10.18994 -10.18946
 Alpha  occ. eigenvalues --  -10.18783 -10.18239 -10.18033 -10.17058 -10.16213
 Alpha  occ. eigenvalues --  -10.15760  -1.09742  -1.07247  -1.00469  -0.98154
 Alpha  occ. eigenvalues --   -0.90847  -0.84203  -0.80705  -0.79021  -0.76546
 Alpha  occ. eigenvalues --   -0.74153  -0.71717  -0.69332  -0.66828  -0.66636
 Alpha  occ. eigenvalues --   -0.63770  -0.61222  -0.60375  -0.57576  -0.56981
 Alpha  occ. eigenvalues --   -0.54384  -0.52702  -0.51471  -0.48915  -0.47837
 Alpha  occ. eigenvalues --   -0.47611  -0.46942  -0.45862  -0.44830  -0.43886
 Alpha  occ. eigenvalues --   -0.42842  -0.42523  -0.41966  -0.41084  -0.40802
 Alpha  occ. eigenvalues --   -0.40139  -0.39059  -0.38750  -0.38516  -0.37614
 Alpha  occ. eigenvalues --   -0.37151  -0.36882  -0.35480  -0.34865  -0.34342
 Alpha  occ. eigenvalues --   -0.33893  -0.32248  -0.31507  -0.31010  -0.30468
 Alpha  occ. eigenvalues --   -0.29035  -0.26521  -0.24710  -0.22338  -0.21966
 Alpha  occ. eigenvalues --   -0.19523
 Alpha virt. eigenvalues --   -0.03321   0.00773   0.02538   0.04307   0.05329
 Alpha virt. eigenvalues --    0.07285   0.08393   0.08790   0.09513   0.10775
 Alpha virt. eigenvalues --    0.11556   0.13851   0.14412   0.14895   0.15700

 Mulliken charges:
               1
     1  O   -0.558997
     2  C    0.602600
     3  C   -0.099035
     4  C   -0.343868
     5  C    0.076470
     6  C    0.003946
     7  N   -0.689807
     8  C    0.295479
     9  C    0.323597
    10  O   -0.659859
    11  C   -0.214732
    12  C   -0.212913
    13  C    0.102127
    14  C    0.242486
    15  C   -0.314922
    16  C   -0.066728
    17  C   -0.432641
    18  C   -0.443129
    19  N   -0.439537
    20  C   -0.005091
    21  O   -0.476409
    22  H    0.405025
    23  H    0.173923
    24  H    0.162023
    25  H    0.160301
    26  H    0.154970
    27  H    0.340231
    28  H    0.414224
    29  H    0.115793
    30  H    0.133131
    31  H    0.156332
    32  H    0.130484
    33  H    0.121559
    34  H    0.147996
    35  H    0.144701
    36  H    0.129966
    37  H    0.135217
    38  H    0.150430
    39  H    0.134658
 Sum of Mulliken charges =  -0.00000

 Dipole moment (field-independent basis, Debye):
    X=              2.9380    Y=             -3.0950    Z=             -0.2990  Tot=              4.2779
 Quadrupole moment (field-independent basis, Debye-Ang):
   XX=           -113.4933   YY=           -119.6899   ZZ=           -112.4958
   XY=             -6.3666   XZ=              0.8778   YZ=              6.6092

 Normal termination of Gaussian 16 at Thu Dec 28 10:08:39 2023.
