 Gaussian 16, Revision A.03,
 Gaussian 16:  ES64L-G16RevA.03 25-Dec-2016

 --------------------
 # opt b3lyp/6-31g(d)
 --------------------

 ------------
 molecule_2_1
 ------------
 Symbolic Z-matrix:
 Charge =  0 Multiplicity = 1

 SCF Done:  E(RB3LYP) =  -1003.43410151     A.U. after   15 cycles
 SCF Done:  E(RB3LYP) =  -1003.44669865     A.U. after   13 cycles
 SCF Done:  E(RB3LYP) =  -1003.44871780     A.U. after   13 cycles
 SCF Done:  E(RB3LYP) =  -1003.44981641     A.U. after   12 cycles
 SCF Done:  E(RB3LYP) =  -1003.44989776     A.U. after   12 cycles
 SCF Done:  E(RB3LYP) =  -1003.45005238     A.U. after   12 cycles
 SCF Done:  E(RB3LYP) =  -1003.45010317     A.U. after   11 cycles
 SCF Done:  E(RB3LYP) =  -1003.45016668     A.U. after   11 cycles
 SCF Done:  E(RB3LYP) =  -1003.45017451     A.U. after   10 cycles
 SCF Done:  E(RB3LYP) =  -1003.45018809     A.U. after    9 cycles
 SCF Done:  E(RB3LYP) =  -1003.45018961     A.U. after    8 cycles
 SCF Done:  E(RB3LYP) =  -1003.45019039     A.U. after    8 cycles
 SCF Done:  E(RB3LYP) =  -1003.45019058     A.U. after    7 cycles
 SCF Done:  E(RB3LYP) =  -1003.45019071     A.U. after    7 cycles
 SCF Done:  E(RB3LYP) =  -1003.45019075     A.U. after    7 cycles
 SCF Done:  E(RB3LYP) =  -1003.45019077     A.U. after    7 cycles
 Optimization completed.
    -- Stationary point found.

                         Standard orientation:
 ---------------------------------------------------------------------
 Center     Atomic      Atomic             Coordinates (Angstroms)
 Number     Number       Type             X           Y           Z
 ---------------------------------------------------------------------
      1          8           0        1.919317   -1.822238   -0.918257
      2          6           0        1.451094   -0.772971   -0.486848
      3          6           0       -0.112710   -0.626747   -0.513560
      4          8           0       -0.533154   -1.061943   -1.814222
      5          6           0       -0.632540    0.786363   -0.217838
      6          6           0       -2.003982    1.096172   -0.313821
      7          6           0       -2.440805    2.418444   -0.054848
      8          6           0       -3.898098    2.818056   -0.150945
      9          6           0       -1.507275    3.394422    0.314158
     10          6           0       -0.163461    3.083079    0.442344
     11          6           0        0.287509    1.782219    0.177586
     12          6           0        1.703948    1.496571    0.324215
     13          6           0        2.290515    0.309814    0.040027
     14          6           0        3.797341    0.100080    0.188273
     15          6           0        4.463035   -0.118113   -1.183256
     16          8           0        4.306622    1.315568    0.765032
     17          6           0        4.098751   -1.069136    1.143367
     18          6           0       -3.020979    0.012650   -0.619404
     19          6           0       -3.134268   -1.025010    0.520408
     20          6           0       -2.087224   -2.163354    0.526424
     21          6           0       -2.275053   -2.963662    1.835143
     22          6           0       -2.342138   -3.132189   -0.649517
     23          6           0       -0.613181   -1.665368    0.530823
     24          1           0       -0.064341   -0.522887   -2.471213
     25          1           0       -4.307707    2.649809   -1.154455
     26          1           0       -4.018626    3.880972    0.079089
     27          1           0       -4.527828    2.256464    0.549915
     28          1           0       -1.847945    4.407305    0.514084
     29          1           0        0.552070    3.843107    0.745971
     30          1           0        2.333106    2.308645    0.675368
     31          1           0        4.288596    0.751035   -1.825808
     32          1           0        4.071487   -1.013011   -1.670820
     33          1           0        5.547295   -0.239410   -1.055391
     34          1           0        5.265775    1.201531    0.850398
     35          1           0        5.184721   -1.182495    1.260673
     36          1           0        3.666543   -0.868776    2.128997
     37          1           0        3.696756   -2.007777    0.756129
     38          1           0       -2.760735   -0.489397   -1.553814
     39          1           0       -4.003351    0.464412   -0.770041
     40          1           0       -3.100408   -0.494129    1.482321
     41          1           0       -4.125988   -1.495192    0.467796
     42          1           0       -3.286205   -3.385441    1.889484
     43          1           0       -2.127251   -2.330441    2.718738
     44          1           0       -1.563990   -3.796586    1.894933
     45          1           0       -1.621022   -3.957953   -0.628618
     46          1           0       -2.246517   -2.645515   -1.620687
     47          1           0       -3.347711   -3.564751   -0.569039
     48          1           0       -0.384798   -1.239084    1.517372
     49          1           0        0.022922   -2.549446    0.411802
 ---------------------------------------------------------------------

 The electronic state is 1-A.
 Alpha  occ. eigenvalues --  -19.15001 -19.14394 -19.13221 -10.26653 -10.25211
 Alpha  occ. eigenvalues --  -10.24882 -10.20449 -10.20203 -10.19970 -10.19832
 Alpha  occ. eigenvalues --  -10.19761 -10.19514 -10.19312 -10.19222 -10.18957
 Alpha  occ. eigenvalues --  -10.18741 -10.18047 -10.17689 -10.17619 -10.17034
 Alpha  occ. eigenvalues --  -10.17015 -10.16751 -10.15643  -1.04176  -1.01995
 Alpha  occ. eigenvalues --   -1.01304  -0.87233  -0.82593  -0.82085  -0.78438
 Alpha  occ. eigenvalues --   -0.77279  -0.74969  -0.74550  -0.70436  -0.68886
 Alpha  occ. eigenvalues --   -0.68554  -0.67181  -0.65554  -0.62985  -0.61720
 Alpha  occ. eigenvalues --   -0.60083  -0.57895  -0.56621  -0.53004  -0.52112
 Alpha  occ. eigenvalues --   -0.50697  -0.48834  -0.48096  -0.46654  -0.46113
 Alpha  occ. eigenvalues --   -0.45162  -0.44574  -0.43942  -0.43320  -0.42906
 Alpha  occ. eigenvalues --   -0.42788  -0.42065  -0.41544  -0.41123  -0.40290
 Alpha  occ. eigenvalues --   -0.39667  -0.39345  -0.38825  -0.38147  -0.38041
 Alpha  occ. eigenvalues --   -0.37437  -0.36828  -0.36459  -0.35961  -0.35631
 Alpha  occ. eigenvalues --   -0.35383  -0.34924  -0.34374  -0.33673  -0.32568
 Alpha  occ. eigenvalues --   -0.32117  -0.31078  -0.30594  -0.30014  -0.29076
 Alpha  occ. eigenvalues --   -0.27479  -0.26825  -0.24479  -0.23414  -0.22086
 Alpha virt. eigenvalues --   -0.06951  -0.01030   0.00858   0.06802   0.07514
 Alpha virt. eigenvalues --    0.08356   0.09766   0.10385   0.10960   0.12564
 Alpha virt. eigenvalues --    0.12980   0.13666   0.14052   0.14290   0.14678

 Mulliken charges:
               1
     1  O   -0.486050
     2  C    0.337421
     3  C    0.184446
     4  O   -0.624373
     5  C    0.032293
     6  C    0.053052
     7  C    0.133366
     8  C   -0.542231
     9  C   -0.187413
    10  C   -0.201488
    11  C    0.159675
    12  C   -0.255294
    13  C    0.058052
    14  C    0.285274
    15  C   -0.465666
    16  O   -0.655781
    17  C   -0.467889
    18  C   -0.357996
    19  C   -0.257841
    20  C    0.091137
    21  C   -0.446599
    22  C   -0.448654
    23  C   -0.289892
    24  H    0.393042
    25  H    0.167458
    26  H    0.155662
    27  H    0.167226
    28  H    0.125400
    29  H    0.134709
    30  H    0.176688
    31  H    0.148528
    32  H    0.183264
    33  H    0.125200
    34  H    0.389925
    35  H    0.125981
    36  H    0.151795
    37  H    0.180014
    38  H    0.179112
    39  H    0.134494
    40  H    0.128087
    41  H    0.128042
    42  H    0.138404
    43  H    0.136422
    44  H    0.141527
    45  H    0.140172
    46  H    0.176687
    47  H    0.124616
    48  H    0.134966
    49  H    0.165033
 Sum of Mulliken charges =  -0.00000

 Dipole moment (field-independent basis, Debye):
    X=             -0.2787    Y=              2.4341    Z=              0.5681  Tot=              2.5150
 Quadrupole moment (field-independent basis, Debye-Ang):
   XX=           -121.9617   YY=           -139.0686   ZZ=           -137.6661
   XY=             -0.7355   XZ=              1.4468   YZ=             -3.9040

 Normal termination of Gaussian 16 at Thu Dec 28 10:06:00 2023.
