 Gaussian 16, Revision A.03,
 Gaussian 16:  ES64L-G16RevA.03 25-Dec-2016

 --------------------
 # opt b3lyp/6-31g(d)
 --------------------

 ------------
 molecule_9_1
 ------------
 Symbolic Z-matrix:
 Charge =  0 Multiplicity = 1

 SCF Done:  E(RB3LYP) =  -1042.71714451     A.U. after   15 cycles
 SCF Done:  E(RB3LYP) =  -1042.73614499     A.U. after   12 cycles
 SCF Done:  E(RB3LYP) =  -1042.73885601     A.U. after   13 cycles
 SCF Done:  E(RB3LYP) =  -1042.73947865     A.U. after   12 cycles
 SCF Done:  E(RB3LYP) =  -1042.73964073     A.U. after   12 cycles
 SCF Done:  E(RB3LYP) =  -1042.73982597     A.U. after   12 cycles
 SCF Done:  E(RB3LYP) =  -1042.74014071     A.U. after   13 cycles
 SCF Done:  E(RB3LYP) =  -1042.74063183     A.U. after   15 cycles
 SCF Done:  E(RB3LYP) =  -1042.74069478     A.U. after   12 cycles
 SCF Done:  E(RB3LYP) =  -1042.74047822     A.U. after   12 cycles
 SCF Done:  E(RB3LYP) =  -1042.74350396     A.U. after    9 cycles
 SCF Done:  E(RB3LYP) =  -1042.74350576     A.U. after   10 cycles
 SCF Done:  E(RB3LYP) =  -1042.74350719     A.U. after   10 cycles
 SCF Done:  E(RB3LYP) =  -1042.74350961     A.U. after   11 cycles
 SCF Done:  E(RB3LYP) =  -1042.74351209     A.U. after   10 cycles
 SCF Done:  E(RB3LYP) =  -1042.74351293     A.U. after    9 cycles
 SCF Done:  E(RB3LYP) =  -1042.74351321     A.U. after    7 cycles
 SCF Done:  E(RB3LYP) =  -1042.74351327     A.U. after    8 cycles
 SCF Done:  E(RB3LYP) =  -1042.74351335     A.U. after    8 cycles
 SCF Done:  E(RB3LYP) =  -1042.74351333     A.U. after    7 cycles
 Optimization completed.
    -- Stationary point found.

                         Standard orientation:
 ---------------------------------------------------------------------
 Center     Atomic      Atomic             Coordinates (Angstroms)
 Number     Number       Type             X           Y           Z
 ---------------------------------------------------------------------
      1          6           0        2.697200    1.917386    2.043886
      2          6           0        3.650218    1.348034    1.023597
      3          6           0        3.278821    0.214341    0.270755
      4          6           0        4.147547   -0.342133   -0.673927
      5          6           0        3.733344   -1.567308   -1.459497
      6          6           0        2.542035   -2.269600   -0.798375
      7          6           0        1.455580   -1.269425   -0.361547
      8          6           0        0.383698   -2.004202    0.466160
      9          6           0       -0.759513   -1.133284    1.056254
     10          6           0       -2.012321   -1.102056    0.219460
     11          6           0       -3.249247   -1.500450    0.555941
     12          6           0       -3.649340   -2.080923    1.890523
     13          6           0       -4.379748   -1.379877   -0.463104
     14          6           0       -5.389344   -0.324277   -0.104458
     15          6           0       -5.713080    0.731069   -0.864889
     16          6           0       -6.726991    1.726778   -0.418759
     17          6           0       -6.997231    2.882706   -1.367324
     18          8           0       -7.313409    1.627395    0.649360
     19          6           0        0.868887   -0.501262   -1.554947
     20          8           0        2.038360   -0.312472    0.558278
     21          6           0        5.401110    0.254487   -0.873562
     22          6           0        5.779845    1.376748   -0.143871
     23          8           0        6.995323    1.997275   -0.301974
     24          6           0        4.902486    1.914961    0.804619
     25          1           0        2.450510    1.177823    2.814993
     26          1           0        3.128244    2.795348    2.534063
     27          1           0        1.747678    2.211434    1.580821
     28          1           0        3.479929   -1.285330   -2.491400
     29          1           0        4.577117   -2.264032   -1.539756
     30          1           0        2.884111   -2.807407    0.094647
     31          1           0        2.106550   -3.012585   -1.476724
     32          1           0       -0.040863   -2.806599   -0.150363
     33          1           0        0.913190   -2.491917    1.293035
     34          1           0       -0.380510   -0.112234    1.196136
     35          1           0       -0.988246   -1.500746    2.060531
     36          1           0       -1.882923   -0.708304   -0.789215
     37          1           0       -4.122934   -3.063526    1.757226
     38          1           0       -4.386793   -1.445611    2.398568
     39          1           0       -2.804869   -2.207558    2.571086
     40          1           0       -3.968816   -1.174841   -1.457930
     41          1           0       -4.903139   -2.348799   -0.524204
     42          1           0       -5.902557   -0.416356    0.852368
     43          1           0       -5.239633    0.888125   -1.833493
     44          1           0       -7.752492    3.544770   -0.939938
     45          1           0       -6.075346    3.448491   -1.554471
     46          1           0       -7.343671    2.508194   -2.339324
     47          1           0        1.648295    0.042103   -2.097061
     48          1           0        0.136012    0.234674   -1.213765
     49          1           0        0.377255   -1.186409   -2.255194
     50          1           0        6.082844   -0.176764   -1.606590
     51          1           0        7.499091    1.522150   -0.980380
     52          1           0        5.216017    2.788032    1.369419
 ---------------------------------------------------------------------

 The electronic state is 1-A.
 Alpha  occ. eigenvalues --  -19.16870 -19.16153 -19.12534 -10.26800 -10.25041
 Alpha  occ. eigenvalues --  -10.23598 -10.22924 -10.20654 -10.19875 -10.19661
 Alpha  occ. eigenvalues --  -10.19357 -10.18994 -10.18919 -10.18841 -10.18825
 Alpha  occ. eigenvalues --  -10.18606 -10.18478 -10.18438 -10.18381 -10.18154
 Alpha  occ. eigenvalues --  -10.18077 -10.18023 -10.17480 -10.17391  -1.04866
 Alpha  occ. eigenvalues --   -1.04717  -1.02413  -0.84740  -0.83067  -0.82044
 Alpha  occ. eigenvalues --   -0.79300  -0.77759  -0.75329  -0.74629  -0.73400
 Alpha  occ. eigenvalues --   -0.70666  -0.69490  -0.68885  -0.67750  -0.65026
 Alpha  occ. eigenvalues --   -0.62606  -0.60212  -0.59357  -0.58121  -0.54135
 Alpha  occ. eigenvalues --   -0.53059  -0.51922  -0.51560  -0.50485  -0.48861
 Alpha  occ. eigenvalues --   -0.47633  -0.46540  -0.45552  -0.45464  -0.45050
 Alpha  occ. eigenvalues --   -0.43972  -0.43759  -0.43465  -0.42630  -0.41844
 Alpha  occ. eigenvalues --   -0.41402  -0.40992  -0.40336  -0.40029  -0.39801
 Alpha  occ. eigenvalues --   -0.39275  -0.38982  -0.38815  -0.38368  -0.38087
 Alpha  occ. eigenvalues --   -0.37193  -0.36905  -0.36685  -0.36558  -0.36166
 Alpha  occ. eigenvalues --   -0.35774  -0.35448  -0.35278  -0.34586  -0.32741
 Alpha  occ. eigenvalues --   -0.32536  -0.31618  -0.29819  -0.28213  -0.26179
 Alpha  occ. eigenvalues --   -0.24138  -0.23523  -0.23318  -0.19057
 Alpha virt. eigenvalues --   -0.04601   0.00410   0.02368   0.03226   0.06965
 Alpha virt. eigenvalues --    0.07261   0.07706   0.09425   0.10134   0.10656
 Alpha virt. eigenvalues --    0.11100   0.11245   0.11487   0.12132   0.12745

 Mulliken charges:
               1
     1  C   -0.514753
     2  C    0.118455
     3  C    0.265042
     4  C    0.142307
     5  C   -0.360701
     6  C   -0.283050
     7  C    0.302825
     8  C   -0.269293
     9  C   -0.324636
    10  C   -0.160350
    11  C    0.178212
    12  C   -0.522365
    13  C   -0.385811
    14  C   -0.048772
    15  C   -0.187742
    16  C    0.434762
    17  C   -0.537920
    18  O   -0.462426
    19  C   -0.465109
    20  O   -0.571274
    21  C   -0.280702
    22  C    0.367423
    23  O   -0.655520
    24  C   -0.233320
    25  H    0.164810
    26  H    0.148578
    27  H    0.161831
    28  H    0.153694
    29  H    0.150674
    30  H    0.148324
    31  H    0.136384
    32  H    0.137095
    33  H    0.143206
    34  H    0.170366
    35  H    0.140994
    36  H    0.115155
    37  H    0.152557
    38  H    0.166618
    39  H    0.160205
    40  H    0.147690
    41  H    0.155021
    42  H    0.166752
    43  H    0.121495
    44  H    0.177337
    45  H    0.167660
    46  H    0.166514
    47  H    0.159260
    48  H    0.162041
    49  H    0.141409
    50  H    0.105777
    51  H    0.403433
    52  H    0.129837
 Sum of Mulliken charges =  -0.00000

 Dipole moment (field-independent basis, Debye):
    X=              1.8055    Y=             -2.6857    Z=             -3.4940  Tot=              4.7624
 Quadrupole moment (field-independent basis, Debye-Ang):
   XX=           -163.9384   YY=           -141.5312   ZZ=           -138.5002
   XY=             -2.4994   XZ=              3.2382   YZ=             -3.2037

 Normal termination of Gaussian 16 at Thu Dec 28 10:20:37 2023.
