 Gaussian 16, Revision A.03,
 Gaussian 16:  ES64L-G16RevA.03 25-Dec-2016

 --------------------
 # opt b3lyp/6-31g(d)
 --------------------

 ------------
 molecule_5_1
 ------------
 Symbolic Z-matrix:
 Charge =  0 Multiplicity = 1

 SCF Done:  E(RB3LYP) =  -956.065633246     A.U. after   16 cycles
 SCF Done:  E(RB3LYP) =  -956.087817278     A.U. after   13 cycles
 SCF Done:  E(RB3LYP) =  -956.091307711     A.U. after   13 cycles
 SCF Done:  E(RB3LYP) =  -956.094637734     A.U. after   12 cycles
 SCF Done:  E(RB3LYP) =  -956.094850748     A.U. after   11 cycles
 SCF Done:  E(RB3LYP) =  -956.094880864     A.U. after   11 cycles
 SCF Done:  E(RB3LYP) =  -956.094886243     A.U. after   10 cycles
 SCF Done:  E(RB3LYP) =  -956.094889940     A.U. after    9 cycles
 SCF Done:  E(RB3LYP) =  -956.094891427     A.U. after    9 cycles
 SCF Done:  E(RB3LYP) =  -956.094891783     A.U. after    8 cycles
 SCF Done:  E(RB3LYP) =  -956.095047747     A.U. after   12 cycles
 SCF Done:  E(RB3LYP) =  -956.095127275     A.U. after    9 cycles
 SCF Done:  E(RB3LYP) =  -956.092367424     A.U. after   15 cycles
 SCF Done:  E(RB3LYP) =  -956.095144572     A.U. after   14 cycles
 SCF Done:  E(RB3LYP) =  -956.095233210     A.U. after   12 cycles
 SCF Done:  E(RB3LYP) =  -956.095248092     A.U. after   10 cycles
 SCF Done:  E(RB3LYP) =  -956.095251628     A.U. after    9 cycles
 SCF Done:  E(RB3LYP) =  -956.095253407     A.U. after   10 cycles
 SCF Done:  E(RB3LYP) =  -956.095253833     A.U. after    8 cycles
 SCF Done:  E(RB3LYP) =  -956.095254023     A.U. after    8 cycles
 Optimization completed.
    -- Stationary point found.

                         Standard orientation:
 ---------------------------------------------------------------------
 Center     Atomic      Atomic             Coordinates (Angstroms)
 Number     Number       Type             X           Y           Z
 ---------------------------------------------------------------------
      1          8           0       -4.121363    1.186332    0.487385
      2          6           0       -3.101368    0.572014    0.226602
      3          6           0       -1.769218    1.377634    0.051106
      4          8           0       -1.864300    2.590792    0.031026
      5          6           0       -3.048684   -0.900017    0.075830
      6          8           0       -4.150684   -1.680643    0.195479
      7          6           0       -5.430151   -1.204755   -0.251053
      8          6           0       -1.843487   -1.504618   -0.070064
      9          6           0       -0.571225   -0.802705   -0.124007
     10          6           0       -0.509933    0.615746   -0.069459
     11          6           0        0.753175    1.238826   -0.131475
     12          8           0        0.805489    2.590971   -0.057514
     13          6           0        1.935671    0.476840   -0.266416
     14          6           0        3.283728    1.172268   -0.316161
     15          8           0        4.365811    0.325388   -0.647078
     16          6           0        4.357002   -0.948214    0.013719
     17          6           0        4.475290   -0.829243    1.535488
     18          6           0        3.122785   -1.729919   -0.456129
     19          6           0        1.855060   -0.915994   -0.312502
     20          6           0        0.605260   -1.543189   -0.239745
     21          1           0       -5.355360   -0.731850   -1.236212
     22          1           0       -5.861458   -0.496843    0.456996
     23          1           0       -6.051848   -2.099807   -0.324891
     24          1           0       -1.822814   -2.589332   -0.134849
     25          1           0        1.726268    2.891444   -0.087797
     26          1           0        3.474259    1.681881    0.647787
     27          1           0        3.290206    1.948672   -1.094879
     28          1           0        5.257984   -1.438895   -0.368099
     29          1           0        5.322922   -0.187972    1.798238
     30          1           0        3.569559   -0.414745    1.991245
     31          1           0        4.644715   -1.817772    1.976705
     32          1           0        3.261986   -1.992516   -1.513541
     33          1           0        3.029298   -2.674552    0.093595
     34          1           0        0.551224   -2.628462   -0.273080
 ---------------------------------------------------------------------

 The electronic state is 1-A.
 Alpha  occ. eigenvalues --  -19.19955 -19.18099 -19.16363 -19.15167 -19.14008
 Alpha  occ. eigenvalues --  -10.28006 -10.27851 -10.27553 -10.26097 -10.25978
 Alpha  occ. eigenvalues --  -10.25344 -10.23389 -10.22305 -10.22285 -10.21331
 Alpha  occ. eigenvalues --  -10.20941 -10.20657 -10.20591 -10.20211 -10.19099
 Alpha  occ. eigenvalues --   -1.08506  -1.07136  -1.05051  -1.04986  -1.02538
 Alpha  occ. eigenvalues --   -0.88421  -0.83321  -0.80777  -0.77875  -0.76479
 Alpha  occ. eigenvalues --   -0.72341  -0.71238  -0.68364  -0.67678  -0.63970
 Alpha  occ. eigenvalues --   -0.62135  -0.59480  -0.57184  -0.56117  -0.52493
 Alpha  occ. eigenvalues --   -0.51844  -0.50722  -0.50529  -0.48305  -0.47989
 Alpha  occ. eigenvalues --   -0.46852  -0.46090  -0.44972  -0.44292  -0.43843
 Alpha  occ. eigenvalues --   -0.43173  -0.42629  -0.42489  -0.41960  -0.41353
 Alpha  occ. eigenvalues --   -0.40509  -0.39448  -0.38633  -0.38180  -0.37510
 Alpha  occ. eigenvalues --   -0.36790  -0.36290  -0.35891  -0.34897  -0.32674
 Alpha  occ. eigenvalues --   -0.31707  -0.28501  -0.27727  -0.27160  -0.24401
 Alpha  occ. eigenvalues --   -0.23273  -0.21827
 Alpha virt. eigenvalues --   -0.10472  -0.03042  -0.00425   0.03894   0.04459
 Alpha virt. eigenvalues --    0.07457   0.08786   0.09310   0.10601   0.11797
 Alpha virt. eigenvalues --    0.11972   0.13141   0.13535   0.14191   0.14766

 Mulliken charges:
               1
     1  O   -0.439481
     2  C    0.352396
     3  C    0.322300
     4  O   -0.424280
     5  C    0.343131
     6  O   -0.513895
     7  C   -0.212499
     8  C   -0.267905
     9  C    0.154878
    10  C    0.026688
    11  C    0.228855
    12  O   -0.603987
    13  C    0.056839
    14  C   -0.123142
    15  O   -0.485198
    16  C    0.121700
    17  C   -0.468876
    18  C   -0.347912
    19  C    0.122797
    20  C   -0.294701
    21  H    0.153273
    22  H    0.187834
    23  H    0.158991
    24  H    0.151191
    25  H    0.424492
    26  H    0.144862
    27  H    0.161097
    28  H    0.143205
    29  H    0.163182
    30  H    0.156122
    31  H    0.152621
    32  H    0.172956
    33  H    0.151090
    34  H    0.131378
 Sum of Mulliken charges =  -0.00000

 Dipole moment (field-independent basis, Debye):
    X=              4.0267    Y=             -3.8874    Z=             -0.3609  Tot=              5.6087
 Quadrupole moment (field-independent basis, Debye-Ang):
   XX=           -109.7485   YY=           -116.1991   ZZ=           -114.0984
   XY=             10.4125   XZ=              8.4578   YZ=              0.2415

 Normal termination of Gaussian 16 at Thu Dec 28 10:06:18 2023.
